<UPF version="2.0.1">
<PP_INFO>
Generated in analytical, separable form
Author: Goedecker/Hartwigsen/Hutter/Teter
Generation date: Phys.Rev.B58, 3641 (1998); B54, 1703 (1996)
Pseudopotential type: NC
Element: Mg
Functional: SLA-PW-PBX-PBC

Suggested minimum cutoff for wavefunctions:   0. Ry
Suggested minimum cutoff for charge density:   0. Ry
The Pseudo was generated with a Scalar-Relativistic Calculation
Local Potential: unknown format, L component and cutoff radius: -3   0.0000

Valence configuration:
nl pn  l   occ       Rcut    Rcut US       E pseu

Generation configuration: not available.
Converted from CPMD format using cpmd2upf v.5.0.1 - PG 10Jul2012
Contains atomic orbitals generated by ld1.x - use with care
</PP_INFO>
<!--                               -->
<!-- END OF HUMAN READABLE SECTION -->
<!--                               -->
<PP_HEADER generated="Generated in analytical, separable form"
author="Goedecker/Hartwigsen/Hutter/Teter"
date="Phys.Rev.B58, 3641 (1998); B54, 1703 (1996)"
comment="Contains atomic orbitals generated by ld1.x - use with care"
element="Mg"
pseudo_type="NC"
relativistic="scalar"
is_ultrasoft="F"
is_paw="F"
is_coulomb="F"
has_so="F"
has_wfc="F"
has_gipaw="F"
paw_as_gipaw="F"
core_correction="F"
functional="SLA-PW-PBX-PBC"
z_valence="1.000000000000000E+001"
total_psenergy="0.000000000000000E+000"
wfc_cutoff="0.000000000000000E+000"
rho_cutoff="0.000000000000000E+000"
l_max="1"
l_max_rho="0"
l_local="-3"
mesh_size="1129"
number_of_wfc=" 4"
number_of_proj="2"/>
<PP_MESH dx="1.250000000000000E-002" mesh="1129" xmin="-7.000000000000000E+000" rmax="1.009972562077148E+002"
zmesh="1.200000000000000E+001">
<PP_R type="real" size="1129" columns="4">
7.599016379620969E-005  7.694600238908519E-005  7.791386395138184E-005  7.889389971343783E-005
7.988626280783498E-005  8.089110829332575E-005  8.190859317906155E-005  8.293887644912595E-005
8.398211908737588E-005  8.503848410259622E-005  8.610813655396975E-005  8.719124357686821E-005
8.828797440896751E-005  8.939850041669140E-005  9.052299512198816E-005  9.166163422944319E-005
9.281459565373361E-005  9.398205954742769E-005  9.516420832913396E-005  9.636122671200481E-005
9.757330173259787E-005  9.880062278010107E-005  1.000433816259251E-004  1.013017724536679E-004
1.025759918894567E-004  1.038662390326708E-004  1.051727154870512E-004  1.064956253922020E-004
1.078351754554873E-004  1.091915749843300E-004  1.105650359189160E-004  1.119557728653106E-004
1.133640031289912E-004  1.147899467488014E-004  1.162338265313332E-004  1.176958680857401E-004
1.191762998589895E-004  1.206753531715580E-004  1.221932622535753E-004  1.237302642814239E-004
1.252865994147977E-004  1.268625108342276E-004  1.284582447790792E-004  1.300740505860277E-004
1.317101807280181E-004  1.333668908537137E-004  1.350444398274422E-004  1.367430897696438E-004
1.384631060978278E-004  1.402047575680451E-004  1.419683163168812E-004  1.437540579039785E-004
1.455622613550933E-004  1.473932092056934E-004  1.492471875451058E-004  1.511244860612179E-004
1.530253980857423E-004  1.549502206400501E-004  1.568992544815815E-004  1.588728041508397E-004
1.608711780189758E-004  1.628946883359722E-004  1.649436512794330E-004  1.670183870039866E-004
1.691192196913112E-004  1.712464776007882E-004  1.734004931207941E-004  1.755816028206362E-004
1.777901475031423E-004  1.800264722579129E-004  1.822909265152404E-004  1.845838641007097E-004
1.869056432904836E-004  1.892566268672839E-004  1.916371821770780E-004  1.940476811864762E-004
1.964885005408528E-004  1.989600216231978E-004  2.014626306137086E-004  2.039967185501319E-004
2.065626813888632E-004  2.091609200668166E-004  2.117918405640715E-004  2.144558539673083E-004
2.171533765340415E-004  2.198848297576601E-004  2.226506404332876E-004  2.254512407244689E-004
2.282870682306974E-004  2.311585660557907E-004  2.340661828771261E-004  2.370103730157473E-004
2.399915965073536E-004  2.430103191741806E-004  2.460670126977872E-004  2.491621546927550E-004
2.522962287813179E-004  2.554697246689286E-004  2.586831382207757E-004  2.619369715392650E-004
2.652317330424723E-004  2.685679375435855E-004  2.719461063313457E-004  2.753667672514985E-004
2.788304547892727E-004  2.823377101528926E-004  2.858890813581446E-004  2.894851233140045E-004
2.931263979093440E-004  2.968134741007275E-004  3.005469280013109E-004  3.043273429708620E-004
3.081553097069110E-004  3.120314263370483E-004  3.159562985123840E-004  3.199305395021803E-004
3.239547702896775E-004  3.280296196691236E-004  3.321557243440242E-004  3.363337290266299E-004
3.405642865386722E-004  3.448480579133697E-004  3.491857124987149E-004  3.535779280620617E-004
3.580253908960283E-004  3.625287959257307E-004  3.670888468173672E-004  3.717062560881668E-004
3.763817452177222E-004  3.811160447607228E-004  3.859098944611038E-004  3.907640433676342E-004
3.956792499509565E-004  4.006562822220991E-004  4.056959178524802E-004  4.107989442954210E-004
4.159661589091847E-004  4.211983690815678E-004  4.264963923560547E-004  4.318610565595604E-004
4.372931999317821E-004  4.427936712561730E-004  4.483633299925684E-004  4.540030464114774E-004
4.597137017300643E-004  4.654961882498416E-004  4.713514094960923E-004  4.772802803590488E-004
4.832837272368455E-004  4.893626881802710E-004  4.955181130393411E-004  5.017509636117132E-004
5.080622137929699E-004  5.144528497287923E-004  5.209238699690467E-004  5.274762856238123E-004
5.341111205213652E-004  5.408294113681573E-004  5.476322079108016E-004  5.545205731000978E-004
5.614955832571223E-004  5.685583282414023E-004  5.757099116212110E-004  5.829514508460014E-004
5.902840774210099E-004  5.977089370840582E-004  6.052271899845743E-004  6.128400108648697E-004
6.205485892436953E-004  6.283541296021058E-004  6.362578515716634E-004  6.442609901250059E-004
6.523647957688145E-004  6.605705347392086E-004  6.688794891995961E-004  6.772929574410175E-004
6.858122540850025E-004  6.944387102889841E-004  7.031736739542948E-004  7.120185099367783E-004
7.209746002600528E-004  7.300433443314523E-004  7.392261591606882E-004  7.485244795812604E-004
7.579397584746513E-004  7.674734669973451E-004  7.771270948106939E-004  7.869021503136843E-004
7.968001608786261E-004  8.068226730898070E-004  8.169712529851524E-004  8.272474863009176E-004
8.376529787194655E-004  8.481893561201564E-004  8.588582648333950E-004  8.696613718978753E-004
8.806003653210546E-004  8.916769543429107E-004  9.028928697030135E-004  9.142498639109565E-004
9.257497115201922E-004  9.373942094053054E-004  9.491851770427814E-004  9.611244567953027E-004
9.732139141996202E-004  9.854554382580515E-004  9.978509417336351E-004  1.010402361449008E-003
1.023111658589037E-003  1.035980819007257E-003  1.049011853536167E-003  1.062206798301422E-003
1.075567715039989E-003  1.089096691422291E-003  1.102795841378411E-003  1.116667305428402E-003
1.130713251016744E-003  1.144935872851012E-003  1.159337393244803E-003  1.173920062464977E-003
1.188686159083271E-003  1.203637990332323E-003  1.218777892466185E-003  1.234108231125368E-003
1.249631401706475E-003  1.265349829736495E-003  1.281265971251786E-003  1.297382313181841E-003
1.313701373737875E-003  1.330225702806301E-003  1.346957882347156E-003  1.363900526797536E-003
1.381056283480104E-003  1.398427833016748E-003  1.416017889747422E-003  1.433829202154282E-003
1.451864553291126E-003  1.470126761218264E-003  1.488618679442838E-003  1.507343197364692E-003
1.526303240727848E-003  1.545501772077657E-003  1.564941791223701E-003  1.584626335708521E-003
1.604558481282244E-003  1.624741342383166E-003  1.645178072624398E-003  1.665871865286619E-003
1.686825953817033E-003  1.708043612334605E-003  1.729528156141645E-003  1.751282942241836E-003
1.773311369864765E-003  1.795616880997064E-003  1.818202960920231E-003  1.841073138755204E-003
1.864230988013800E-003  1.887680127157081E-003  1.911424220160744E-003  1.935466977087631E-003
1.959812154667426E-003  1.984463556883656E-003  2.009425035568073E-003  2.034700491002503E-003
2.060293872528283E-003  2.086209179163346E-003  2.112450460227079E-003  2.139021815973036E-003
2.165927398229612E-003  2.193171411048776E-003  2.220758111362957E-003  2.248691809650207E-003
2.276976870607714E-003  2.305617713833798E-003  2.334618814518485E-003  2.363984704142758E-003
2.393719971186619E-003  2.423829261846040E-003  2.454317280758941E-003  2.485188791740309E-003
2.516448618526542E-003  2.548101645529174E-003  2.580152818598074E-003  2.612607145794241E-003
2.645469698172330E-003  2.678745610573006E-003  2.712440082425286E-003  2.746558378558947E-003
2.781105830027173E-003  2.816087834939546E-003  2.851509859305503E-003  2.887377437888419E-003
2.923696175070420E-003  2.960471745728081E-003  2.997709896119139E-003  3.035416444780353E-003
3.073597283436668E-003  3.112258377921802E-003  3.151405769110424E-003  3.191045573862055E-003
3.231183985976834E-003  3.271827277163318E-003  3.312981798018443E-003  3.354653979019821E-003
3.396850331530519E-003  3.439577448816462E-003  3.482842007076660E-003  3.526650766486360E-003
3.571010572253349E-003  3.615928355687531E-003  3.661411135283952E-003  3.707466017819460E-003
3.754100199463152E-003  3.801320966900784E-003  3.849135698473343E-003  3.897551865329915E-003
3.946577032595077E-003  3.996218860550956E-003  4.046485105834164E-003  4.097383622647798E-003
4.148922363988662E-003  4.201109382889948E-003  4.253952833679534E-003  4.307460973254116E-003
4.361642162369368E-003  4.416504866946319E-003  4.472057659394178E-003  4.528309219949791E-003
4.585268338033936E-003  4.642943913624702E-003  4.701344958648115E-003  4.760480598386275E-003
4.820360072903207E-003  4.880992738488628E-003  4.942388069119895E-003  5.004555657942331E-003
5.067505218768164E-003  5.131246587594353E-003  5.195789724139453E-003  5.261144713399867E-003
5.327321767225633E-003  5.394331225916046E-003  5.462183559835364E-003  5.530889371048800E-003
5.600459394979149E-003  5.670904502084185E-003  5.742235699555215E-003  5.814464133036972E-003
5.887601088369133E-003  5.961657993349772E-003  6.036646419520958E-003  6.112578083976844E-003
6.189464851194492E-003  6.267318734887700E-003  6.346151899884196E-003  6.425976664026395E-003
6.506805500096097E-003  6.588651037763391E-003  6.671526065560045E-003  6.755443532877773E-003
6.840416551991569E-003  6.926458400108547E-003  7.013582521442533E-003  7.101802529314736E-003
7.191132208280878E-003  7.281585516285036E-003  7.373176586840609E-003  7.465919731238726E-003
7.559829440784376E-003  7.654920389060745E-003  7.751207434221961E-003  7.848705621314725E-003
7.947430184629138E-003  8.047396550079069E-003  8.148620337612508E-003  8.251117363652196E-003
8.354903643566980E-003  8.459995394174257E-003  8.566409036273866E-003  8.674161197213891E-003
8.783268713488699E-003  8.893748633369685E-003  9.005618219569109E-003  9.118894951937411E-003
9.233596530194493E-003  9.349740876695316E-003  9.467346139230315E-003  9.586430693861036E-003
9.707013147791413E-003  9.829112342275211E-003  9.952747355559973E-003  1.007793750586806E-002
1.020470235441516E-002  1.033306170846677E-002  1.046303562443310E-002  1.059464441100297E-002
1.072790863231702E-002  1.086284911118097E-002  1.099948693231918E-002  1.113784344566920E-002
1.127794026971773E-002  1.141979929487854E-002  1.156344268691294E-002  1.170889289039318E-002
1.185617263220947E-002  1.200530492512111E-002  1.215631307135229E-002  1.230922066623307E-002
1.246405160188626E-002  1.262083007096055E-002  1.277958057041071E-002  1.294032790532525E-002
1.310309719280230E-002  1.326791386587419E-002  1.343480367748140E-002  1.360379270449654E-002
1.377490735179888E-002  1.394817435640021E-002  1.412362079162251E-002  1.430127407132823E-002
1.448116195420376E-002  1.466331254809680E-002  1.484775431440821E-002  1.503451607253924E-002
1.522362700439456E-002  1.541511665894203E-002  1.560901495682976E-002  1.580535219506128E-002
1.600415905172951E-002  1.620546659081030E-002  1.640930626701618E-002  1.661570993071127E-002
1.682470983288796E-002  1.703633863020617E-002  1.725062939009606E-002  1.746761559592482E-002
1.768733115222859E-002  1.790981039001005E-002  1.813508807210274E-002  1.836319939860282E-002
1.859418001236916E-002  1.882806600459258E-002  1.906489392043521E-002  1.930470076474074E-002
1.954752400781648E-002  1.979340159128818E-002  2.004237193402852E-002  2.029447393816007E-002
2.054974699513388E-002  2.080823099188447E-002  2.106996631706221E-002  2.133499386734418E-002
2.160335505382430E-002  2.187509180848395E-002  2.215024659074389E-002  2.242886239409866E-002
2.271098275283439E-002  2.299665174883110E-002  2.328591401845062E-002  2.357881475951108E-002
2.387539973834918E-002  2.417571529697128E-002  2.447980836029441E-002  2.478772644347839E-002
2.509951765935018E-002  2.541523072592161E-002  2.573491497400167E-002  2.605862035490449E-002
2.638639744825444E-002  2.671829746988923E-002  2.705437227986248E-002  2.739467439054702E-002
2.773925697483997E-002  2.808817387447120E-002  2.844147960841615E-002  2.879922938141455E-002
2.916147909259629E-002  2.952828534421574E-002  2.989970545049598E-002  3.027579744658428E-002
3.065662009762020E-002  3.104223290791776E-002  3.143269613026309E-002  3.182807077532909E-002
3.222841862120845E-002  3.263380222306659E-002  3.304428492291608E-002  3.345993085951390E-002
3.388080497838327E-002  3.430697304196155E-002  3.473850163987571E-002  3.517545819934714E-002
3.561791099572723E-002  3.606592916316562E-002  3.651958270541245E-002  3.697894250675667E-002
3.744408034310182E-002  3.791506889318114E-002  3.839198174991383E-002  3.887489343190404E-002
3.936387939508457E-002  3.985901604450702E-002  4.036038074628022E-002  4.086805183965886E-002
4.138210864928414E-002  4.190263149757843E-002  4.242970171729579E-002  4.296340166423036E-002
4.350381473008468E-002  4.405102535549979E-002  4.460511904324920E-002  4.516618237159895E-002
4.573430300783555E-002  4.630956972196430E-002  4.689207240057966E-002  4.748190206091027E-002
4.807915086504057E-002  4.868391213431134E-002  4.929628036390127E-002  4.991635123759214E-002
5.054422164271947E-002  5.117998968531150E-002  5.182375470541836E-002  5.247561729263419E-002
5.313567930181446E-002  5.380404386899102E-002  5.448081542748729E-002  5.516609972423619E-002
5.586000383630330E-002  5.656263618761789E-002  5.727410656591437E-002  5.799452613988685E-002
5.872400747655947E-002  5.946266455887523E-002  6.021061280350604E-002  6.096796907888685E-002
6.173485172347652E-002  6.251138056424850E-002  6.329767693541406E-002  6.409386369738090E-002
6.490006525595043E-002  6.571640758175641E-002  6.654301822994811E-002  6.738002636012107E-002
6.822756275649851E-002  6.908575984836672E-002  6.995475173076730E-002  7.083467418544988E-002
7.172566470208817E-002  7.262786249976318E-002  7.354140854871631E-002  7.446644559237633E-002
7.540311816966333E-002  7.635157263757317E-002  7.731195719404610E-002  7.828442190112302E-002
7.926911870839286E-002  8.026620147673517E-002  8.127582600236109E-002  8.229815004115681E-002
8.333333333333337E-002  8.438153762838624E-002  8.544292671036911E-002  8.651766642348546E-002
8.760592469800205E-002  8.870787157648831E-002  8.982367924038599E-002  9.095352203691269E-002
9.209757650630401E-002  9.325602140939841E-002  9.442903775556889E-002  9.561680883100605E-002
9.681952022735696E-002  9.803735987072425E-002  9.927051805102988E-002  1.005191874517484E-001
1.017835631800142E-001  1.030638427971071E-001  1.043602263493221E-001  1.056729163992267E-001
1.070021180573118E-001  1.083480390140410E-001  1.097108895723019E-001  1.110908826802669E-001
1.124882339646670E-001  1.139031617644831E-001  1.153358871650627E-001  1.167866340326645E-001
1.182556290494381E-001  1.197431017488437E-001  1.212492845515168E-001  1.227744128015847E-001
1.243187248034393E-001  1.258824618589728E-001  1.274658683052816E-001  1.290691915528445E-001
1.306926821241808E-001  1.323365936929953E-001  1.340011831238153E-001  1.356867105121259E-001
1.373934392250107E-001  1.391216359423036E-001  1.408715706982577E-001  1.426435169237388E-001
1.444377514889497E-001  1.462545547466916E-001  1.480942105761699E-001  1.499570064273508E-001
1.518432333658758E-001  1.537531861185417E-001  1.556871631193519E-001  1.576454665561475E-001
1.596284024178247E-001  1.616362805421462E-001  1.636694146641540E-001  1.657281224651911E-001
1.678127256225398E-001  1.699235498596847E-001  1.720609249972073E-001  1.742251850043214E-001
1.764166680510563E-001  1.786357165610967E-001  1.808826772652870E-001  1.831579012558086E-001
1.854617440410391E-001  1.877945656011008E-001  1.901567304441087E-001  1.925486076631254E-001
1.949705709938327E-001  1.974229988729284E-001  1.999062744972583E-001  2.024207858836908E-001
2.049669259297459E-001  2.075450924749860E-001  2.101556883631791E-001  2.127991215052440E-001
2.154758049429873E-001  2.181861569136418E-001  2.209306009152173E-001  2.237095657726726E-001
2.265234857049205E-001  2.293728003926755E-001  2.322579550471543E-001  2.351794004796418E-001
2.381375931719304E-001  2.411329953476468E-001  2.441660750444752E-001  2.472373061872890E-001
2.503471686622029E-001  2.534961483915554E-001  2.566847374098361E-001  2.599134339405662E-001
2.631827424741474E-001  2.664931738466897E-001  2.698452453198302E-001  2.732394806615563E-001
2.766764102280457E-001  2.801565710465359E-001  2.836805068992351E-001  2.872487684082897E-001
2.908619131218202E-001  2.945205056010393E-001  2.982251175084650E-001  3.019763276972453E-001
3.057747223016039E-001  3.096208948284255E-001  3.135154462499927E-001  3.174589850978886E-001
3.214521275580813E-001  3.254954975672045E-001  3.295897269100482E-001  3.337354553182772E-001
3.379333305703897E-001  3.421840085929346E-001  3.464881535630008E-001  3.508464380119969E-001
3.552595429307350E-001  3.597281578758372E-001  3.642529810774800E-001  3.688347195484947E-001
3.734740891948389E-001  3.781718149274587E-001  3.829286307755576E-001  3.877452800012894E-001
3.926225152158953E-001  3.975610984973004E-001  4.025618015091901E-001  4.076254056215839E-001
4.127527020329265E-001  4.179444918937135E-001  4.232015864316736E-001  4.285248070785240E-001
4.339149855983209E-001  4.393729642174245E-001  4.448995957560982E-001  4.504957437617641E-001
4.561622826439335E-001  4.619000978108355E-001  4.677100858077634E-001  4.735931544571622E-001
4.795502230004778E-001  4.855822222417897E-001  4.916900946932516E-001  4.978747947223606E-001
5.041372887010791E-001  5.104785551568324E-001  5.168995849254057E-001  5.234013813057640E-001
5.299849602168196E-001  5.366513503561718E-001  5.434015933608429E-001  5.502367439700359E-001
5.571578701899395E-001  5.641660534606067E-001  5.712623888249319E-001  5.784479850997531E-001
5.857239650491081E-001  5.930914655596665E-001  6.005516378183726E-001  6.081056474923195E-001
6.157546749108878E-001  6.234999152501736E-001  6.313425787197374E-001  6.392838907517028E-001
6.473250921922314E-001  6.554674394954080E-001  6.637122049195647E-001  6.720606767260729E-001
6.805141593806380E-001  6.890739737571229E-001  6.977414573439390E-001  7.065179644530315E-001
7.154048664314914E-001  7.244035518758341E-001  7.335154268489678E-001  7.427419150998951E-001
7.520844582861773E-001  7.615445161991939E-001  7.711235669922415E-001  7.808231074114946E-001
7.906446530298775E-001  8.005897384838757E-001  8.106599177133239E-001  8.208567642042158E-001
8.311818712345606E-001  8.416368521233381E-001  8.522233404825837E-001  8.629429904726412E-001
8.737974770606316E-001  8.847884962821676E-001  8.959177655063634E-001  9.071870237041787E-001
9.185980317201338E-001  9.301525725474478E-001  9.418524516066324E-001  9.536994970275939E-001
9.656955599352831E-001  9.778425147389345E-001  9.901422594249505E-001  1.002596715853462E+000
1.015207830058623E+000  1.027977572552689E+000  1.040907938633901E+000  1.054000948698269E+000
1.067258648555254E+000  1.080683109747428E+000  1.094276429874169E+000  1.108040732919399E+000
1.121978169583475E+000  1.136090917619230E+000  1.150381182172258E+000  1.164851196125470E+000
1.179503220447984E+000  1.194339544548411E+000  1.209362486632577E+000  1.224574394065746E+000
1.239977643739404E+000  1.255574642442649E+000  1.271367827238264E+000  1.287359665843502E+000
1.303552657015681E+000  1.319949330942619E+000  1.336552249637973E+000  1.353364007341570E+000
1.370387230924755E+000  1.387624580300846E+000  1.405078748840753E+000  1.422752463793822E+000
1.440648486713971E+000  1.458769613891191E+000  1.477118676788471E+000  1.495698542484221E+000
1.514512114120256E+000  1.533562331355421E+000  1.552852170824918E+000  1.572384646605408E+000
1.592162810685972E+000  1.612189753444985E+000  1.632468604133000E+000  1.653002531361694E+000
1.673794743598973E+000  1.694848489670302E+000  1.716167059266336E+000  1.737753783456951E+000
1.759612035211719E+000  1.781745229926946E+000  1.804156825959339E+000  1.826850325166373E+000
1.849829273453470E+000  1.873097261328052E+000  1.896657924460561E+000  1.920514944252549E+000
1.944672048411894E+000  1.969133011535269E+000  1.993901655697929E+000  2.018981851050916E+000
2.044377516425780E+000  2.070092619946904E+000  2.096131179651531E+000  2.122497264117591E+000
2.149194993099423E+000  2.176228538171498E+000  2.203602123380234E+000  2.231320025904011E+000
2.259386576721492E+000  2.287806161288343E+000  2.316583220222473E+000  2.345722249997888E+000
2.375227803647274E+000  2.405104491473419E+000  2.435356981769579E+000  2.465990001548914E+000
2.497008337283086E+000  2.528416835650161E+000  2.560220404291911E+000  2.592424012580639E+000
2.625032692395663E+000  2.658051538909543E+000  2.691485711384225E+000  2.725340433977181E+000
2.759620996557694E+000  2.794332755533413E+000  2.829481134687297E+000  2.865071626025100E+000
2.901109790633504E+000  2.937601259549047E+000  2.974551734637991E+000  3.011966989487246E+000
3.049852870306501E+000  3.088215296841716E+000  3.127060263300085E+000  3.166393839286648E+000
3.206222170752679E+000  3.246551480955999E+000  3.287388071433380E+000  3.328738322985163E+000
3.370608696672285E+000  3.413005734825818E+000  3.455936062069231E+000  3.499406386353501E+000
3.543423500005234E+000  3.587994280787995E+000  3.633125692976961E+000  3.678824788447104E+000
3.725098707775071E+000  3.771954681354899E+000  3.819400030527791E+000  3.867442168726083E+000
3.916088602631609E+000  3.965346933348642E+000  4.015224857591570E+000  4.065730168887536E+000
4.116870758794184E+000  4.168654618132731E+000  4.221089838236556E+000  4.274184612215477E+000
4.327947236235956E+000  4.382386110817373E+000  4.437509742144637E+000  4.493326743397297E+000
4.549845836095357E+000  4.607075851462036E+000  4.665025731803680E+000  4.723704531906985E+000
4.783121420453853E+000  4.843285681454003E+000  4.904206715695618E+000  4.965894042214249E+000
5.028357299780167E+000  5.091606248404448E+000  5.155650770863995E+000  5.220500874245738E+000
5.286166691510279E+000  5.352658483075158E+000  5.419986638418084E+000  5.488161677700313E+000
5.557194253410434E+000  5.627095152028846E+000  5.697875295713179E+000  5.769545744004887E+000
5.842117695557326E+000  5.915602489885578E+000  5.990011609138256E+000  6.065356679891639E+000
6.141649474966321E+000  6.218901915266748E+000  6.297126071643890E+000  6.376334166781324E+000
6.456538577105075E+000  6.537751834717429E+000  6.619986629355117E+000  6.703255810372109E+000
6.787572388747345E+000  6.872949539117752E+000  6.959400601836773E+000  7.046939085058839E+000
7.135578666850055E+000  7.225333197325408E+000  7.316216700812904E+000  7.408243378044861E+000
7.501427608376825E+000  7.595783952034370E+000  7.691327152388157E+000  7.788072138257639E+000
7.886034026243679E+000  7.985228123090580E+000  8.085669928077786E+000  8.187375135441672E+000
8.290359636827821E+000  8.394639523774094E+000  8.500231090224981E+000  8.607150835077571E+000
8.715415464759518E+000  8.825041895839494E+000  8.936047257670380E+000  9.048448895065809E+000
9.162264371010300E+000  9.277511469403530E+000  9.394208197839102E+000  9.512372790418253E+000
9.632023710598981E+000  9.753179654080993E+000  9.875859551726945E+000  1.000008257252045E+001
1.012586812656125E+001  1.025323586809805E+001  1.038220569859962E+001  1.051279776986435E+001
1.064503248716908E+001  1.077893051245741E+001  1.091451276756823E+001  1.105180043750472E+001
1.119081497374463E+001  1.133157809759208E+001  1.147411180357156E+001  1.161843836286461E+001
1.176458032678975E+001  1.191256053032617E+001  1.206240209568175E+001  1.221412843590593E+001
1.236776325854806E+001  1.252333056936175E+001  1.268085467605580E+001  1.284036019209240E+001
1.300187204053293E+001  1.316541545793230E+001  1.333101599828222E+001  1.349869953700403E+001
1.366849227499182E+001  1.384042074270634E+001  1.401451180432047E+001  1.419079266191676E+001
1.436929085973786E+001  1.455003428849036E+001  1.473305118970270E+001  1.491837016013807E+001
1.510602015626261E+001  1.529603049877000E+001  1.548843087716285E+001  1.568325135439171E+001
1.588052237155251E+001  1.608027475264305E+001  1.628253970937925E+001  1.648734884607213E+001
1.669473416456599E+001  1.690472806923875E+001  1.711736337206528E+001  1.733267329774422E+001
1.755069148888954E+001  1.777145201128717E+001  1.799498935921786E+001  1.822133846084702E+001
1.845053468368226E+001  1.868261384009976E+001  1.891761219293984E+001  1.915556646117325E+001
1.939651382563853E+001  1.964049193485155E+001  1.988753891088831E+001  2.013769335534140E+001
2.039099435535172E+001  2.064748148971586E+001  2.090719483507038E+001  2.117017497215392E+001
2.143646299214791E+001  2.170610050309725E+001  2.197912963641160E+001  2.225559305344851E+001
2.253553395217940E+001  2.281899607393921E+001  2.310602371026118E+001  2.339666170979746E+001
2.369095548532674E+001  2.398895102085025E+001  2.429069487877668E+001  2.459623420719771E+001
2.490561674725505E+001  2.521889084059999E+001  2.553610543694703E+001  2.585731010172220E+001
2.618255502380788E+001  2.651189102338484E+001  2.684536955987305E+001  2.718304273997234E+001
2.752496332580408E+001  2.787118474315544E+001  2.822176108982730E+001  2.857674714408703E+001
2.893619837322790E+001  2.930017094223573E+001  2.966872172256495E+001  3.004190830102481E+001
3.041978898877741E+001  3.080242283044907E+001  3.118986961335601E+001  3.158218987684632E+001
3.197944492175935E+001  3.238169682000407E+001  3.278900842425801E+001  3.320144337778800E+001
3.361906612439463E+001  3.404194191848171E+001  3.447013683525240E+001  3.490371778103366E+001
3.534275250373038E+001  3.578730960341120E+001  3.623745854302739E+001  3.669326965926658E+001
3.715481417354309E+001  3.762216420312630E+001  3.809539277240911E+001  3.857457382431830E+001
3.905978223186808E+001  3.955109380985937E+001  4.004858532672578E+001  4.055233451652897E+001
4.106242009110473E+001  4.157892175236184E+001  4.210192020473576E+001  4.263149716779868E+001
4.316773538902854E+001  4.371071865673837E+001  4.426053181316843E+001  4.481726076774308E+001
4.538099251049412E+001  4.595181512565327E+001  4.652981780541550E+001  4.711509086387543E+001
4.770772575113929E+001  4.830781506761387E+001  4.891545257847579E+001  4.953073322832235E+001
5.015375315600685E+001  5.078460970966064E+001  5.142340146190364E+001  5.207022822524679E+001
5.272519106768784E+001  5.338839232850341E+001  5.405993563423987E+001  5.473992591490498E+001
5.542846942036353E+001  5.612567373693912E+001  5.683164780422462E+001  5.754650193210448E+001
5.827034781799048E+001  5.900329856427501E+001  5.974546869600332E+001  6.049697417876845E+001
6.125793243683110E+001  6.202846237146725E+001  6.280868437954683E+001  6.359872037234597E+001
6.439869379459583E+001  6.520872964377132E+001  6.602895448962184E+001  6.685949649394831E+001
6.770048543062866E+001  6.855205270589521E+001  6.941433137886733E+001  7.028745618234196E+001
7.117156354384603E+001  7.206679160695349E+001  7.297328025287050E+001  7.389117112229236E+001
7.482060763753486E+001  7.576173502494443E+001  7.671470033759009E+001  7.767965247824070E+001
7.865674222263158E+001  7.964612224302313E+001  8.064794713205646E+001  8.166237342690869E+001
8.268955963375218E+001  8.372966625252175E+001  8.478285580199260E+001  8.584929284517456E+001
8.692914401502533E+001  8.802257804048709E+001  8.912976577285110E+001  9.025088021245301E+001
9.138609653570497E+001  9.253559212246709E+001  9.369954658376338E+001  9.487814178984667E+001
9.607156189861571E+001  9.727999338439052E+001  9.850362506704933E+001  9.974264814153196E+001
1.009972562077148E+002
</PP_R>
<PP_RAB type="real" size="1129" columns="4">
9.498770474526212E-007  9.618250298635650E-007  9.739232993922731E-007  9.861737464179729E-007
9.985782850979373E-007  1.011138853666572E-006  1.023857414738269E-006  1.036735955614074E-006
1.049776488592199E-006  1.062981051282453E-006  1.076351706924622E-006  1.089890544710853E-006
1.103599680112094E-006  1.117481255208643E-006  1.131537439024852E-006  1.145770427868040E-006
1.160182445671670E-006  1.174775744342846E-006  1.189552604114175E-006  1.204515333900060E-006
1.219666271657473E-006  1.235007784751263E-006  1.250542270324063E-006  1.266272155670849E-006
1.282199898618209E-006  1.298327987908385E-006  1.314658943588140E-006  1.331195317402525E-006
1.347939693193592E-006  1.364894687304125E-006  1.382062948986450E-006  1.399447160816382E-006
1.417050039112390E-006  1.434874334360018E-006  1.452922831641665E-006  1.471198351071752E-006
1.489703748237369E-006  1.508441914644475E-006  1.527415778169691E-006  1.546628303517799E-006
1.566082492684971E-006  1.585781385427845E-006  1.605728059738490E-006  1.625925632325346E-006
1.646377259100226E-006  1.667086135671421E-006  1.688055497843028E-006  1.709288622120548E-006
1.730788826222848E-006  1.752559469600564E-006  1.774603953961015E-006  1.796925723799732E-006
1.819528266938667E-006  1.842415115071167E-006  1.865589844313823E-006  1.889056075765224E-006
1.912817476071778E-006  1.936877758000626E-006  1.961240681019768E-006  1.985910051885496E-006