<UPF version="2.0.1">
<PP_INFO>
Generated in analytical, separable form
Author: Goedecker/Hartwigsen/Hutter/Teter
Generation date: Phys.Rev.B58, 3641 (1998); B54, 1703 (1996)
Pseudopotential type: NC
Element:  B
Functional: SLA-PW-PBX-PBC

Suggested minimum cutoff for wavefunctions:   0. Ry
Suggested minimum cutoff for charge density:   0. Ry
The Pseudo was generated with a Scalar-Relativistic Calculation
Local Potential: unknown format, L component and cutoff radius: -3   0.0000

Valence configuration:
nl pn  l   occ       Rcut    Rcut US       E pseu

Generation configuration: not available.
Converted from CPMD format using cpmd2upf v.5.0.1 - PG 10Jul2012
Contains atomic orbitals generated by ld1.x - use with care
</PP_INFO>
<!--                               -->
<!-- END OF HUMAN READABLE SECTION -->
<!--                               -->
<PP_HEADER generated="Generated in analytical, separable form"
author="Goedecker/Hartwigsen/Hutter/Teter"
date="Phys.Rev.B58, 3641 (1998); B54, 1703 (1996)"
comment="Contains atomic orbitals generated by ld1.x - use with care"
element=" B"
pseudo_type="NC"
relativistic="scalar"
is_ultrasoft="F"
is_paw="F"
is_coulomb="F"
has_so="F"
has_wfc="F"
has_gipaw="F"
paw_as_gipaw="F"
core_correction="F"
functional="SLA-PW-PBX-PBC"
z_valence="3.000000000000000E+000"
total_psenergy="0.000000000000000E+000"
wfc_cutoff="0.000000000000000E+000"
rho_cutoff="0.000000000000000E+000"
l_max="1"
l_max_rho="0"
l_local="-3"
mesh_size="1059"
number_of_wfc=" 2"
number_of_proj="1"/>
<PP_MESH dx="1.250000000000000E-002" mesh="1059" xmin="-7.000000000000000E+000" rmax="1.010446084913658E+002"
zmesh="5.000000000000000E+000">
<PP_R type="real" size="1059" columns="4">
1.823763931109032E-004  1.846704057338044E-004  1.869932734833164E-004  1.893453593122508E-004
1.917270307388040E-004  1.941386599039818E-004  1.965806236297477E-004  1.990533034779023E-004
2.015570858097021E-004  2.040923618462309E-004  2.066595277295274E-004  2.092589845844837E-004
2.118911385815220E-004  2.145564010000594E-004  2.172551882927716E-004  2.199879221506637E-004
2.227550295689607E-004  2.255569429138265E-004  2.283940999899215E-004  2.312669441088115E-004
2.341759241582349E-004  2.371214946722426E-004  2.401041159022202E-004  2.431242538888029E-004
2.461823805346962E-004  2.492789736784099E-004  2.524145171689229E-004  2.555895009412849E-004
2.588044210931696E-004  2.620597799623920E-004  2.653560862053983E-004  2.686938548767454E-004
2.720736075095788E-004  2.754958721971234E-004  2.789611836751998E-004  2.824700834057763E-004
2.860231196615749E-004  2.896208476117391E-004  2.932638294085806E-004  2.969526342754174E-004
3.006878385955145E-004  3.044700260021463E-004  3.082997874697901E-004  3.121777214064664E-004
3.161044337472434E-004  3.200805380489129E-004  3.241066555858613E-004  3.281834154471452E-004
3.323114546347868E-004  3.364914181633082E-004  3.407239591605148E-004  3.450097389695485E-004
3.493494272522239E-004  3.537437020936641E-004  3.581932501082540E-004  3.626987665469231E-004
3.672609554057814E-004  3.718805295361202E-004  3.765582107557954E-004  3.812947299620153E-004
3.860908272455419E-004  3.909472520063334E-004  3.958647630706393E-004  4.008441288095678E-004
4.058861272591468E-004  4.109915462418918E-004  4.161611834899058E-004  4.213958467695268E-004
4.266963540075416E-004  4.320635334189909E-004  4.374982236365770E-004  4.430012738417034E-004
4.485735438971607E-004  4.542159044814814E-004  4.599292372249872E-004  4.657144348475427E-004
4.715724012980466E-004  4.775040518956747E-004  4.835103134729007E-004  4.895921245203166E-004
4.957504353332717E-004  5.019862081603597E-004  5.083004173537717E-004  5.146940495215400E-004
5.211681036816996E-004  5.277235914183843E-004  5.343615370398901E-004  5.410829777387253E-004
5.478889637536737E-004  5.547805585338977E-004  5.617588389051026E-004  5.688248952377935E-004
5.759798316176486E-004  5.832247660180335E-004  5.905608304746893E-004  5.979891712626121E-004
6.055109490751630E-004  6.131273392054286E-004  6.208395317298617E-004  6.286487316942361E-004
6.365561593019333E-004  6.445630501046053E-004  6.526706551952296E-004  6.608802414035964E-004
6.691930914942544E-004  6.776105043669423E-004  6.861337952595469E-004  6.947642959536107E-004
7.035033549824257E-004  7.123523378417460E-004  7.213126272031461E-004  7.303856231300687E-004
7.395727432965864E-004  7.488754232089160E-004  7.582951164297215E-004  7.678332948052327E-004
7.774914486952261E-004  7.872710872058967E-004  7.971737384256581E-004  8.072009496639116E-004
8.173542876928133E-004  8.276353389920874E-004  8.380457099969159E-004  8.485870273489480E-004
8.592609381504679E-004  8.700691102217538E-004  8.810132323616813E-004  8.920950146116003E-004
9.033161885225332E-004  9.146785074257346E-004  9.261837467066491E-004  9.378337040823222E-004
9.496301998822955E-004  9.615750773330380E-004  9.736702028459526E-004  9.859174663090103E-004
9.983187813820435E-004  1.010876085795763E-003  1.023591341654531E-003  1.036466535742945E-003
1.049503679836277E-003  1.062704811014815E-003  1.076071991982164E-003  1.089607311387546E-003
1.103312884152154E-003  1.117190851799620E-003  1.131243382790622E-003  1.145472672861717E-003
1.159880945368429E-003  1.174470451632650E-003  1.189243471294419E-003  1.204202312668112E-003
1.219349313103128E-003  1.234686839349102E-003  1.250217287925712E-003  1.265943085497149E-003
1.281866689251277E-003  1.297990587283577E-003  1.314317298985924E-003  1.330849375440235E-003
1.347589399817093E-003  1.364539987779365E-003  1.381703787890906E-003  1.399083482030403E-003
1.416681785810424E-003  1.434501449001740E-003  1.452545255962978E-003  1.470816026075687E-003
1.489316614184869E-003  1.508049911045054E-003  1.527018843771992E-003  1.546226376300014E-003
1.565675509845155E-003  1.585369283374101E-003  1.605310774079031E-003  1.625503097858442E-003
1.645949409804006E-003  1.666652904693562E-003  1.687616817490308E-003  1.708844423848268E-003
1.730339040624127E-003  1.752104026395486E-003  1.774142781985652E-003  1.796458750995025E-003
1.819055420339163E-003  1.841936320793628E-003  1.865105027545665E-003  1.888565160752842E-003
1.912320386108703E-003  1.936374415415537E-003  1.960731007164366E-003  1.985393967122202E-003
2.010367148926717E-003  2.035654454688376E-003  2.061259835600148E-003  2.087187292554901E-003
2.113440876770531E-003  2.140024690422986E-003  2.166942887287232E-003  2.194199673386295E-003
2.221799307648461E-003  2.249746102572733E-003  2.278044424902675E-003  2.306698696308726E-003
2.335713394079088E-003  2.365093051819324E-003  2.394842260160724E-003  2.424965667477620E-003
2.455467980613689E-003  2.486353965617416E-003  2.517628448486800E-003  2.549296315923414E-003
2.581362516095974E-003  2.613832059413498E-003  2.646710019308186E-003  2.680001533028165E-003
2.713711802440187E-003  2.747846094842429E-003  2.782409743787526E-003  2.817408149915945E-003
2.852846781799851E-003  2.888731176797576E-003  2.925066941918845E-003  2.961859754700883E-003
2.999115364095541E-003  3.036839591367589E-003  3.075038331004286E-003  3.113717551636418E-003
3.152883296970900E-003  3.192541686735122E-003  3.232698917633175E-003  3.273361264314086E-003
3.314535080352251E-003  3.356226799240194E-003  3.398442935393813E-003  3.441190085170276E-003
3.484474927898703E-003  3.528304226923832E-003  3.572684830662810E-003  3.617623673675260E-003
3.663127777746836E-003  3.709204252986377E-003  3.755860298936882E-003  3.803103205700451E-003
3.850940355077386E-003  3.899379221719599E-003  3.948427374298557E-003  3.998092476687886E-003
4.048382289160878E-003  4.099304669603052E-003  4.150867574739948E-003  4.203079061380406E-003
4.255947287675435E-003  4.309480514392955E-003  4.363687106208555E-003  4.418575533012488E-003
4.474154371233120E-003  4.530432305176994E-003  4.587418128385786E-003  4.645120745010315E-003
4.703549171201821E-003  4.762712536520776E-003  4.822620085363375E-003  4.883281178406007E-003
4.944705294067880E-003  5.006902029992029E-003  5.069881104544989E-003  5.133652358335287E-003
5.198225755751069E-003  5.263611386517063E-003  5.329819467271097E-003  5.396860343160497E-003
5.464744489458514E-003  5.533482513201115E-003  5.603085154844365E-003  5.673563289942620E-003
5.744927930847887E-003  5.817190228430495E-003  5.890361473821458E-003  5.964453100176742E-003
6.039476684463700E-003  6.115443949270019E-003  6.192366764635379E-003  6.270257149906177E-003
6.349127275613591E-003  6.428989465375214E-003  6.509856197820687E-003  6.591740108541473E-003
6.674653992065216E-003  6.758610803854911E-003  6.843623662333207E-003  6.929705850932205E-003
7.016870820169008E-003  7.105132189747393E-003  7.194503750685933E-003  7.284999467472847E-003
7.376633480248003E-003  7.469420107012324E-003  7.563373845865017E-003  7.658509377268932E-003
7.754841566344402E-003  7.852385465191963E-003  7.951156315244264E-003  8.051169549647571E-003
8.152440795673245E-003  8.254985877159509E-003  8.358820816983983E-003  8.463961839567264E-003
8.570425373408037E-003  8.678228053650075E-003  8.787386724681484E-003  8.897918442766705E-003
9.009840478711565E-003  9.123170320561881E-003  9.237925676336025E-003  9.354124476791795E-003
9.471784878228185E-003  9.590925265322296E-003  9.711564254001995E-003  9.833720694354717E-003
9.957413673572790E-003  1.008266251893588E-002  1.020948680083088E-002  1.033790633580988E-002
1.046794118968648E-002  1.059961168067117E-002  1.073293838254603E-002  1.086794212787950E-002
1.100464401128145E-002  1.114306539269929E-002  1.128322790075547E-002  1.142515343612706E-002
1.156886417496770E-002  1.171438257237271E-002  1.186173136588775E-002  1.201093357906160E-002
1.216201252504360E-002  1.231499181022645E-002  1.246989533793469E-002  1.262674731215968E-002
1.278557224134152E-002  1.294639494219851E-002  1.310924054360487E-002  1.327413449051712E-002
1.344110254794996E-002  1.361017080500205E-002  1.378136567893252E-002  1.395471391928873E-002
1.413024261208592E-002  1.430797918403945E-002  1.448795140685030E-002  1.467018740154443E-002
1.485471564286678E-002  1.504156496373048E-002  1.523076455972207E-002  1.542234399366335E-002
1.561633320023063E-002  1.581276249063214E-002  1.601166255734411E-002  1.621306447890666E-002
1.641699972477977E-002  1.662350016026051E-002  1.683259805146208E-002  1.704432607035537E-002
1.725871729987411E-002  1.747580523908409E-002  1.769562380841746E-002  1.791820735497294E-002
1.814359065788250E-002  1.837180893374579E-002  1.860289784213271E-002  1.883689349115534E-002
1.907383244310993E-002  1.931375172018977E-002  1.955668881027002E-002  1.980268167276527E-002
2.005176874456075E-002  2.030398894601822E-002  2.055938168705728E-002  2.081798687331334E-002
2.107984491237288E-002  2.134499672008724E-002  2.161348372696586E-002  2.188534788464979E-002
2.216063167246678E-002  2.243937810406876E-002  2.272163073415275E-002  2.300743366526649E-002
2.329683155469939E-002  2.358986962146050E-002  2.388659365334394E-002  2.418705001408334E-002
2.449128565059639E-002  2.479934810032024E-002  2.511128549863945E-002  2.542714658640713E-002
2.574698071756085E-002  2.607083786683434E-002  2.639876863756604E-002  2.673082426960609E-002
2.706705664732255E-002  2.740751830770850E-002  2.775226244859106E-002  2.810134293694363E-002
2.845481431730272E-002  2.881273182029066E-002  2.917515137124548E-002  2.954212959895937E-002
2.991372384452702E-002  3.028999217030532E-002  3.067099336898570E-002  3.105678697278060E-002
3.144743326272553E-002  3.184299327809806E-002  3.224352882595536E-002  3.264910249079168E-002
3.305977764431731E-002  3.347561845536051E-002  3.389668989989403E-002  3.432305777118776E-002
3.475478869008904E-002  3.519195011543232E-002  3.563461035457970E-002  3.608283857409417E-002
3.653670481054694E-002  3.699627998146086E-002  3.746163589639142E-002  3.793284526814707E-002
3.840998172415083E-002  3.889311981794472E-002  3.938233504083882E-002  3.987770383370705E-002
4.037930359893109E-002  4.088721271249481E-002  4.140151053623053E-002  4.192227743021958E-002
4.244959476534863E-002  4.298354493602413E-002  4.352421137304659E-002  4.407167855664678E-002
4.462603202968597E-002  4.518735841102219E-002  4.575574540904450E-002  4.633128183537778E-002
4.691405761875954E-002  4.750416381909164E-002  4.810169264166845E-002  4.870673745158416E-002
4.931939278832131E-002  4.993975438052272E-002  5.056791916094931E-002  5.120398528162603E-002
5.184805212917833E-002  5.250022034036147E-002  5.316059181778533E-002  5.382926974583678E-002
5.450635860680254E-002  5.519196419719465E-002  5.588619364428148E-002  5.658915542282659E-002
5.730095937203803E-002  5.802171671273108E-002  5.875154006470659E-002  5.949054346434814E-002
6.023884238244044E-002  6.099655374221187E-002  6.176379593760399E-002  6.254068885177078E-002
6.332735387581066E-002  6.412391392773414E-002  6.493049347166996E-002  6.574721853731284E-002
6.657421673961593E-002  6.741161729873088E-002  6.825955106019875E-002  6.911815051539491E-002
6.998754982223110E-002  7.086788482611776E-002  7.175929308119035E-002  7.266191387180228E-002
7.357588823428848E-002  7.450135897900262E-002  7.543847071263141E-002  7.638736986078981E-002
7.734820469090027E-002  7.832112533535981E-002  7.930628381499860E-002  8.030383406283335E-002
8.131393194811984E-002  8.233673530070772E-002  8.337240393570171E-002  8.442109967843311E-002
8.548298638974536E-002  8.655822999159749E-002  8.764699849298987E-002  8.874946201621600E-002
8.986579282344435E-002  9.099616534363474E-002  9.214075619979320E-002  9.329974423656970E-002
9.447331054820297E-002  9.566163850681685E-002  9.686491379107252E-002  9.808332441518126E-002
9.931706075828194E-002  1.005663155941882E-001  1.018312841215099E-001  1.031121639941529E-001
1.044091553522032E-001  1.057224608531995E-001  1.070522857037981E-001  1.083988376918375E-001
1.097623272188053E-001  1.111429673327143E-001  1.125409737613912E-001  1.139565649461846E-001
1.153899620760974E-001  1.168413891223472E-001  1.183110728733630E-001  1.197992429702211E-001
1.213061319425267E-001  1.228319752447476E-001  1.243770112930041E-001  1.259414815023220E-001
1.275256303243547E-001  1.291297052855785E-001  1.307539570259695E-001  1.323986393381668E-001
1.340640092071279E-001  1.357503268502829E-001  1.374578557581945E-001  1.391868627357284E-001
1.409376179437427E-001  1.427103949413006E-001  1.445054707284145E-001  1.463231257893284E-001
1.481636441363436E-001  1.500273133541964E-001  1.519144246449938E-001  1.538252728737142E-001
1.557601566142811E-001  1.577193781962154E-001  1.597032437518755E-001  1.617120632642906E-001
1.637461506155964E-001  1.658058236360802E-001  1.678914041538415E-001  1.700032180450797E-001
1.721415952850116E-001  1.743068699994316E-001  1.764993805169192E-001  1.787194694217032E-001
1.809674836071920E-001  1.832437743301756E-001  1.855486972657106E-001  1.878826125626952E-001
1.902458849001429E-001  1.926388835441644E-001  1.950619824056666E-001  1.975155600987764E-001
2.000000000000001E-001  2.025156903081270E-001  2.050630241048859E-001  2.076423994163651E-001
2.102542192752049E-001  2.128988917835720E-001  2.155768301769264E-001  2.182884528885904E-001
2.210341836151296E-001  2.238144513825562E-001  2.266296906133654E-001  2.294803411944145E-001
2.323668485456567E-001  2.352896636897382E-001  2.382492433224717E-001  2.412460498841962E-001
2.442805516320340E-001  2.473532227130570E-001  2.504645432383730E-001  2.536149993581440E-001
2.568050833375484E-001  2.600352936336983E-001  2.633061349735245E-001  2.666181184326407E-001
2.699717615152007E-001  2.733675882347594E-001  2.768061291961504E-001  2.802879216783948E-001
2.838135097186515E-001  2.873834441972250E-001  2.909982829236404E-001  2.946585907238032E-001
2.983649395282542E-001  3.021179084615346E-001  3.059180839326759E-001  3.097660597268267E-001
3.136624370980339E-001  3.176078248631888E-001  3.216028394971567E-001  3.256481052291021E-001
3.297442541400258E-001  3.338919262615287E-001  3.380917696758184E-001  3.423444406169730E-001
3.466506035734792E-001  3.510109313920599E-001  3.554261053828078E-001  3.598968154256419E-001
3.644237600781020E-001  3.690076466845001E-001  3.736491914864447E-001  3.783491197347540E-001
3.831081658027794E-001  3.879270733011509E-001  3.928065951939695E-001  3.977474939164586E-001
4.027505414940955E-001  4.078165196632432E-001  4.129462199932974E-001  4.181404440103713E-001
4.234000033225351E-001  4.287257197466320E-001  4.341184254366887E-001  4.395789630139405E-001
4.451081856984938E-001  4.507069574426419E-001  4.563761530658609E-001  4.621166583915010E-001
4.679293703851984E-001  4.738151972950281E-001  4.797750587934198E-001  4.858098861208578E-001
4.919206222313902E-001  4.981082219399663E-001  5.043736520716299E-001  5.107178916125856E-001
5.171419318631695E-001  5.236467765927404E-001  5.302334421965216E-001  5.369029578544142E-001
5.436563656918093E-001  5.504947209424211E-001  5.574190921131703E-001  5.644305611511403E-001
5.715302236126331E-001  5.787191888343524E-001  5.859985801067406E-001  5.933695348494937E-001
6.008332047892869E-001  6.083907561397330E-001  6.160433697836065E-001  6.237922414573587E-001
6.316385819379537E-001  6.395836172320555E-001  6.476285887675924E-001  6.557747535877351E-001
6.640233845473098E-001  6.723757705116861E-001  6.808332165581642E-001  6.893970441798952E-001
6.980685914923686E-001  7.068492134424942E-001  7.157402820203160E-001  7.247431864733888E-001
7.338593335238492E-001  7.430901475882211E-001  7.524370709999824E-001  7.619015642349325E-001
7.714851061393952E-001  7.811891941612907E-001  7.910153445841158E-001  8.009650927638653E-001
8.110399933689353E-001  8.212416206230430E-001  8.315715685512020E-001  8.420314512287925E-001
8.526229030337639E-001  8.633475789020093E-001  8.742071545859520E-001  8.852033269163873E-001
8.963378140676135E-001  9.076123558259009E-001  9.190287138613382E-001  9.305886720030946E-001
9.422940365181487E-001  9.541466363935210E-001  9.661483236220562E-001  9.783009734918015E-001
9.906064848790235E-001  1.003066780544912E+000  1.015683807436017E+000  1.028459536988457E+000
1.041395965435970E+000  1.054495114121819E+000  1.067759029814636E+000  1.081189785028234E+000
1.094789478345440E+000  1.108560234746005E+000  1.122504205938632E+000  1.136623570697189E+000
1.150920535201147E+000  1.165397333380295E+000  1.180056227263804E+000  1.194899507333665E+000
1.209929492882590E+000  1.225148532376398E+000  1.240559003820974E+000  1.256163315133833E+000
1.271963904520367E+000  1.287963240854813E+000  1.304163824066023E+000  1.320568185528086E+000
1.337178888455855E+000  1.353998528305456E+000  1.371029733179836E+000  1.388275164239408E+000
1.405737516117859E+000  1.423419517343200E+000  1.441323930764094E+000  1.459453553981567E+000
1.477811219786131E+000  1.496399796600417E+000  1.515222188927370E+000  1.534281337804087E+000
1.553580221261356E+000  1.573121854788979E+000  1.592909291806955E+000  1.612945624142575E+000
1.633233982513531E+000  1.653777537017095E+000  1.674579497625454E+000  1.695643114687276E+000
1.716971679435579E+000  1.738568524502002E+000  1.760437024437522E+000  1.782580596239748E+000
1.805002699886825E+000  1.827706838878066E+000  1.850696560781380E+000  1.873975457787587E+000
1.897547167271706E+000  1.921415372361302E+000  1.945583802511977E+000  1.970056234090118E+000
1.994836490962945E+000  2.019928445096011E+000  2.045336017158201E+000  2.071063177134339E+000
2.097113944945516E+000  2.123492391077202E+000  2.150202637215272E+000  2.177248856890029E+000
2.204635276128321E+000  2.232366174113875E+000  2.260445883855918E+000  2.288878792866226E+000
2.317669343844679E+000  2.346822035373443E+000  2.376341422619881E+000  2.406232118048308E+000
2.436498792140696E+000  2.467146174126452E+000  2.498179052721363E+000  2.529602276875846E+000
2.561420756532608E+000  2.593639463393828E+000  2.626263431698005E+000  2.659297759006558E+000
2.692747607000340E+000  2.726618202286153E+000  2.760914837213420E+000  2.795642870701128E+000
2.830807729075162E+000  2.866414906916187E+000  2.902469967918185E+000  2.938978545757790E+000
2.975946344974569E+000  3.013379141862358E+000  3.051282785371833E+000  3.089663198024405E+000
3.128526376837636E+000  3.167878394262285E+000  3.207725399131135E+000  3.248073617619769E+000
3.288929354219412E+000  3.330298992722030E+000  3.372188997217808E+000  3.414605913105172E+000
3.457556368113530E+000  3.501047073338858E+000  3.545084824292330E+000  3.589676501962130E+000
3.634829073888613E+000  3.680549595253011E+000  3.726845209979803E+000  3.773723151852978E+000
3.821190745646331E+000  3.869255408267963E+000  3.917924649919200E+000  3.967206075268066E+000
4.017107384637535E+000  4.067636375208724E+000  4.118800942239207E+000  4.170609080296684E+000
4.223068884508125E+000  4.276188551824671E+000  4.329976382302414E+000  4.384440780399294E+000
4.439590256288329E+000  4.495433427187325E+000  4.551979018705348E+000  4.609235866206118E+000
4.667212916188545E+000  4.725919227684646E+000  4.785363973675031E+000  4.845556442522198E+000
4.906506039421872E+000  4.968222287872569E+000  5.030714831163675E+000  5.093993433882219E+000
5.158067983438615E+000  5.222948491611596E+000  5.288645096112560E+000  5.355168062169627E+000
5.422527784131582E+000  5.490734787092022E+000  5.559799728533936E+000  5.629733399994931E+000
5.700546728753459E+000  5.772250779536207E+000  5.844856756246990E+000  5.918376003717394E+000
5.992820009479405E+000  6.068200405560387E+000  6.144528970300587E+000  6.221817630193535E+000
6.300078461749591E+000  6.379323693382903E+000  6.459565707322139E+000  6.540817041545234E+000
6.623090391738465E+000  6.706398613280190E+000  6.790754723249513E+000  6.876171902460240E+000
6.962663497520410E+000  7.050243022917712E+000  7.138924163131179E+000  7.228720774769390E+000
7.319646888735602E+000  7.411716712420119E+000  7.504944631920203E+000  7.599345214287956E+000
7.694933209806431E+000  7.791723554294397E+000  7.889731371440111E+000  7.988971975164391E+000
8.089460872013483E+000  8.191213763581965E+000  8.294246548966154E+000  8.398575327248402E+000
8.504216400012561E+000  8.611186273891189E+000  8.719501663144706E+000  8.829179492273051E+000
8.940236898660171E+000  9.052691235251757E+000  9.166560073266698E+000  9.281861204942599E+000
9.398612646315861E+000  9.516832640036741E+000  9.636539658219768E+000  9.757752405330088E+000
9.880489821106043E+000  1.000477108351855E+001  1.013061561176773E+001  1.025804306931714E+001
1.038707336696629E+001  1.051772666596169E+001  1.065002338114713E+001  1.078398418415351E+001
1.091963000662886E+001  1.105698204350889E+001  1.119606175632883E+001  1.133689087657676E+001
1.147949140908925E+001  1.162388563548961E+001  1.177009611766948E+001  1.191814570131420E+001
1.206805751947240E+001  1.221985499617067E+001  1.237356185007359E+001  1.252920209818977E+001
1.268680005962467E+001  1.284638035938038E+001  1.300796793220340E+001  1.317158802648075E+001
1.333726620818504E+001  1.350502836486923E+001  1.367490070971163E+001  1.384690978561173E+001
1.402108246933758E+001  1.419744597572539E+001  1.437602786193181E+001  1.455685603173993E+001
1.473995873991917E+001  1.492536459664020E+001  1.511310257194534E+001  1.530320200027518E+001
1.549569258505218E+001  1.569060440332183E+001  1.588796791045228E+001  1.608781394489306E+001
1.629017373299363E+001  1.649507889388261E+001  1.670256144440825E+001  1.691265380414121E+001
1.712538880044013E+001  1.734079967358098E+001  1.755892008195097E+001  1.777978410730767E+001
1.800342626010438E+001  1.822988148488249E+001  1.845918516573158E+001  1.869137313181833E+001
1.892648166298483E+001  1.916454749541739E+001  1.940560782738669E+001  1.964970032506001E+001
1.989686312838677E+001  2.014713485705783E+001  2.040055461653996E+001  2.065716200418617E+001
2.091699711542284E+001  2.118010055001479E+001  2.144651341840891E+001  2.171627734815794E+001
2.198943449042472E+001  2.226602752656847E+001  2.254609967481385E+001  2.282969469700381E+001
2.311685690543755E+001  2.340763116979438E+001  2.370206292414467E+001  2.400019817404909E+001
2.430208350374699E+001  2.460776608343533E+001  2.491729367663909E+001  2.523071464767443E+001
2.554807796920579E+001  2.586943322989779E+001  2.619483064216374E+001  2.652432105001133E+001
2.685795593698710E+001  2.719578743422100E+001  2.753786832857174E+001  2.788425207087506E+001
2.823499278429540E+001  2.859014527278280E+001  2.894976502963620E+001  2.931390824617424E+001
2.968263182051535E+001  3.005599336646820E+001  3.043405122253392E+001  3.081686446102175E+001
3.120449289727902E+001  3.159699709903752E+001  3.199443839587734E+001  3.239687888880967E+001
3.280438145998037E+001  3.321700978249523E+001  3.363482833036912E+001  3.405790238860023E+001
3.448629806337087E+001  3.492008229237686E+001  3.535932285528649E+001  3.580408838433137E+001
3.625444837503027E+001  3.671047319704800E+001  3.717223410519083E+001  3.763980325054010E+001
3.811325369172603E+001  3.859265940634332E+001  3.907809530251019E+001  3.956963723057311E+001
4.006736199495837E+001  4.057134736617301E+001  4.108167209295667E+001  4.159841591458613E+001
4.212165957333491E+001  4.265148482708921E+001  4.318797446212286E+001  4.373121230603284E+001
4.428128324083743E+001  4.483827321623941E+001  4.540226926305562E+001  4.597335950681581E+001
4.655163318153246E+001  4.713718064364372E+001  4.773009338613193E+001  4.833046405281935E+001
4.893838645284412E+001  4.955395557531806E+001  5.017726760416892E+001  5.080841993316941E+001
5.144751118115499E+001  5.209464120743340E+001  5.274991112738785E+001  5.341342332827643E+001
5.408528148523055E+001  5.476559057745411E+001  5.545445690462684E+001  5.615198810351391E+001
5.685829316478419E+001  5.757348245004061E+001  5.829766770906404E+001  5.903096209727450E+001
5.977348019341211E+001  6.052533801743997E+001  6.128665304867286E+001  6.205754424413328E+001
6.283813205713890E+001  6.362853845612361E+001  6.442888694369530E+001  6.523930257593361E+001
6.605991198192979E+001  6.689084338357307E+001  6.773222661558552E+001  6.858419314580888E+001
6.944687609574694E+001  7.032041026136577E+001  7.120493213415588E+001  7.210057992245954E+001
7.300749357306577E+001  7.392581479307778E+001  7.485568707205444E+001  7.579725570443118E+001
7.675066781222245E+001  7.771607236800976E+001  7.869362021821922E+001  7.968346410669119E+001
8.068575869854710E+001  8.170066060435610E+001  8.272832840460576E+001  8.376892267448079E+001
8.482260600895292E+001  8.588954304818687E+001  8.696990050326573E+001  8.806384718223978E+001
8.917155401650344E+001  9.029319408750311E+001  9.142894265378187E+001  9.257897717836391E+001
9.374347735648340E+001  9.492262514366249E+001  9.611660478414187E+001  9.732560283966953E+001
9.854980821865135E+001  9.978941220566841E+001  1.010446084913658E+002
</PP_R>
<PP_RAB type="real" size="1059" columns="4">
2.279704913886291E-006  2.308380071672556E-006  2.337415918541456E-006  2.366816991403135E-006
2.396587884235050E-006  2.426733248799772E-006  2.457257795371847E-006  2.488166293473778E-006
2.519463572621276E-006  2.551154523077886E-006  2.583244096619093E-006  2.615737307306046E-006
2.648639232269026E-006  2.681955012500742E-006  2.715689853659645E-006  2.749849026883296E-006
2.784437869612008E-006  2.819461786422831E-006  2.854926249874019E-006  2.890836801360144E-006
2.927199051977937E-006  2.964018683403032E-006  3.001301448777752E-006  3.039053173610037E-006
3.077279756683703E-006  3.115987170980124E-006  3.155181464611536E-006  3.194868761766061E-006
3.235055263664620E-006  3.275747249529900E-006  3.316951077567479E-006  3.358673185959317E-006
3.400920093869735E-006  3.443698402464042E-006  3.487014795939997E-006  3.530876042572204E-006
3.575288995769686E-006  3.620260595146739E-006  3.665797867607258E-006  3.711907928442717E-006
3.758597982443931E-006  3.805875325026829E-006  3.853747343372376E-006  3.902221517580831E-006
3.951305421840543E-006  4.001006725611411E-006  4.051333194823266E-006  4.102292693089316E-006
4.153893182934835E-006  4.206142727041353E-006  4.259049489506436E-006  4.312621737119357E-006
4.366867840652800E-006  4.421796276170802E-006  4.477415626353175E-006  4.533734581836539E-006
4.590761942572268E-006  4.648506619201502E-006  4.706977634447443E-006  4.766184124525192E-006
4.826135340569274E-006  4.886840650079168E-006  4.948309538382992E-006  5.010551610119598E-006
5.073576590739335E-006  5.137394328023647E-006  5.202014793623824E-006  5.267448084619085E-006
5.333704425094270E-006  5.400794167737387E-006  5.468727795457213E-006  5.537515923021293E-006
5.607169298714508E-006  5.677698806018517E-006  5.749115465312340E-006  5.821430435594285E-006
5.894655016225583E-006  5.968800648695933E-006  6.043878918411259E-006  6.119901556503958E-006
6.196880441665896E-006  6.274827602004496E-006  6.353755216922146E-006  6.433675619019250E-006
6.514601296021246E-006  6.596544892729805E-006  6.679519212998626E-006  6.763537221734067E-006
6.848612046920922E-006  6.934756981673721E-006  7.021985486313782E-006  7.110311190472420E-006
7.199747895220608E-006  7.290309575225419E-006  7.382010380933616E-006  7.474864640782652E-006
7.568886863439538E-006  7.664091740067858E-006  7.760494146623272E-006  7.858109146177952E-006
7.956951991274167E-006  8.057038126307566E-006  8.158383189940370E-006  8.261003017544955E-006
8.364913643678181E-006  8.470131304586780E-006  8.576672440744337E-006  8.684553699420134E-006
8.793791937280321E-006  8.904404223021825E-006  9.016407840039326E-006  9.129820289125859E-006
9.244659291207330E-006  9.360942790111451E-006  9.478688955371519E-006  9.597916185065410E-006
9.718643108690327E-006  9.840888590073708E-006  9.964671730320727E-006  1.009001187079890E-005
1.021692859616017E-005  1.034544173740109E-005  1.047557137496145E-005  1.060733784186185E-005
1.074076172688085E-005  1.087586387777192E-005  1.101266540452102E-005  1.115118768264500E-005