<UPF version="2.0.1">
<PP_INFO>
Generated in analytical, separable form
Author: Goedecker/Hartwigsen/Hutter/Teter
Generation date: Phys.Rev.B58, 3641 (1998); B54, 1703 (1996)
Pseudopotential type: NC
Element: Be
Functional: SLA-PW-PBX-PBC

Suggested minimum cutoff for wavefunctions:   0. Ry
Suggested minimum cutoff for charge density:   0. Ry
The Pseudo was generated with a Scalar-Relativistic Calculation
Local Potential: unknown format, L component and cutoff radius: -3   0.0000

Valence configuration:
nl pn  l   occ       Rcut    Rcut US       E pseu

Generation configuration: not available.
Converted from CPMD format using cpmd2upf v.5.0.1 - PG 10Jul2012
Contains atomic orbitals generated by ld1.x - use with care
</PP_INFO>
<!--                               -->
<!-- END OF HUMAN READABLE SECTION -->
<!--                               -->
<PP_HEADER generated="Generated in analytical, separable form"
author="Goedecker/Hartwigsen/Hutter/Teter"
date="Phys.Rev.B58, 3641 (1998); B54, 1703 (1996)"
comment="Contains atomic orbitals generated by ld1.x - use with care"
element="Be"
pseudo_type="NC"
relativistic="scalar"
is_ultrasoft="F"
is_paw="F"
is_coulomb="F"
has_so="F"
has_wfc="F"
has_gipaw="F"
paw_as_gipaw="F"
core_correction="F"
functional="SLA-PW-PBX-PBC"
z_valence="4.000000000000000E+000"
total_psenergy="0.000000000000000E+000"
wfc_cutoff="0.000000000000000E+000"
rho_cutoff="0.000000000000000E+000"
l_max="-1"
l_max_rho="0"
l_local="-3"
mesh_size="1041"
number_of_wfc=" 3"
number_of_proj="0"/>
<PP_MESH dx="1.250000000000000E-002" mesh="1041" xmin="-7.000000000000000E+000" rmax="1.008571983731839E+002"
zmesh="4.000000000000000E+000">
<PP_R type="real" size="1041" columns="4">
2.279704913886291E-004  2.308380071672556E-004  2.337415918541455E-004  2.366816991403135E-004
2.396587884235050E-004  2.426733248799772E-004  2.457257795371847E-004  2.488166293473778E-004
2.519463572621276E-004  2.551154523077886E-004  2.583244096619093E-004  2.615737307306046E-004
2.648639232269025E-004  2.681955012500742E-004  2.715689853659645E-004  2.749849026883296E-004
2.784437869612008E-004  2.819461786422831E-004  2.854926249874019E-004  2.890836801360144E-004
2.927199051977936E-004  2.964018683403032E-004  3.001301448777752E-004  3.039053173610037E-004
3.077279756683702E-004  3.115987170980124E-004  3.155181464611536E-004  3.194868761766061E-004
3.235055263664620E-004  3.275747249529900E-004  3.316951077567479E-004  3.358673185959317E-004
3.400920093869735E-004  3.443698402464043E-004  3.487014795939997E-004  3.530876042572204E-004
3.575288995769686E-004  3.620260595146739E-004  3.665797867607258E-004  3.711907928442717E-004
3.758597982443931E-004  3.805875325026829E-004  3.853747343372376E-004  3.902221517580831E-004
3.951305421840543E-004  4.001006725611411E-004  4.051333194823267E-004  4.102292693089315E-004
4.153893182934835E-004  4.206142727041353E-004  4.259049489506435E-004  4.312621737119356E-004
4.366867840652799E-004  4.421796276170802E-004  4.477415626353174E-004  4.533734581836538E-004
4.590761942572268E-004  4.648506619201503E-004  4.706977634447443E-004  4.766184124525191E-004
4.826135340569273E-004  4.886840650079168E-004  4.948309538382992E-004  5.010551610119598E-004
5.073576590739335E-004  5.137394328023647E-004  5.202014793623823E-004  5.267448084619085E-004
5.333704425094270E-004  5.400794167737386E-004  5.468727795457213E-004  5.537515923021292E-004
5.607169298714508E-004  5.677698806018517E-004  5.749115465312340E-004  5.821430435594284E-004
5.894655016225582E-004  5.968800648695934E-004  6.043878918411259E-004  6.119901556503958E-004
6.196880441665896E-004  6.274827602004496E-004  6.353755216922146E-004  6.433675619019250E-004
6.514601296021246E-004  6.596544892729804E-004  6.679519212998626E-004  6.763537221734067E-004
6.848612046920921E-004  6.934756981673722E-004  7.021985486313782E-004  7.110311190472419E-004
7.199747895220608E-004  7.290309575225419E-004  7.382010380933617E-004  7.474864640782651E-004
7.568886863439538E-004  7.664091740067858E-004  7.760494146623272E-004  7.858109146177951E-004
7.956951991274167E-004  8.057038126307566E-004  8.158383189940371E-004  8.261003017544955E-004
8.364913643678180E-004  8.470131304586779E-004  8.576672440744336E-004  8.684553699420134E-004
8.793791937280321E-004  8.904404223021824E-004  9.016407840039326E-004  9.129820289125859E-004
9.244659291207330E-004  9.360942790111451E-004  9.478688955371520E-004  9.597916185065409E-004
9.718643108690326E-004  9.840888590073708E-004  9.964671730320726E-004  1.009001187079890E-003
1.021692859616017E-003  1.034544173740109E-003  1.047557137496145E-003  1.060733784186185E-003
1.074076172688085E-003  1.087586387777192E-003  1.101266540452102E-003  1.115118768264500E-003
1.129145235653166E-003  1.143348134282168E-003  1.157729683383311E-003  1.172292130102903E-003
1.187037749852869E-003  1.201968846666297E-003  1.217087753557441E-003  1.232396832886263E-003
1.247898476727554E-003  1.263595107244704E-003  1.279489177068164E-003  1.295583169678681E-003
1.311879599795346E-003  1.328381013768519E-003  1.345089989977705E-003  1.362009139234432E-003
1.379141105190193E-003  1.396488564749525E-003  1.414054228488277E-003  1.431840841077146E-003
1.449851181710537E-003  1.468088064540813E-003  1.486554339118024E-003  1.505252890835140E-003
1.524186641378909E-003  1.543358549186377E-003  1.562771609907140E-003  1.582428856871437E-003
1.602333361564096E-003  1.622488234104472E-003  1.642896623732405E-003  1.663561719300293E-003
1.684486749771367E-003  1.705674984724207E-003  1.727129734863633E-003  1.748854352538004E-003
1.770852232263030E-003  1.793126811252175E-003  1.815681569953723E-003  1.838520032594609E-003
1.861645767731086E-003  1.885062388806317E-003  1.908773554714990E-003  1.932782970375018E-003
1.957094387306443E-003  1.981711604217626E-003  2.006638467598789E-003  2.031878872323053E-003
2.057436762255008E-003  2.083316130866952E-003  2.109521021862884E-003  2.136055529810335E-003
2.162923800780159E-003  2.190130032994357E-003  2.217678477482065E-003  2.245573438743781E-003
2.273819275423954E-003  2.302420400992035E-003  2.331381284432082E-003  2.360706450941053E-003
2.390400482635878E-003  2.420468019269421E-003  2.450913758955457E-003  2.481742458902753E-003
2.512958936158396E-003  2.544568068360469E-003  2.576574794500185E-003  2.608984115693626E-003
2.641801095963164E-003  2.675030863028732E-003  2.708678609109041E-003  2.742749591732869E-003
2.777249134560577E-003  2.812182628215916E-003  2.847555531128344E-003  2.883373370385908E-003
2.919641742598861E-003  2.956366314774154E-003  2.993552825200905E-003  3.031207084347025E-003
3.069334975767112E-003  3.107942457021771E-003  3.147035560608500E-003  3.186620394904267E-003
3.226703145119968E-003  3.267290074266873E-003  3.308387524135232E-003  3.350001916285207E-003
3.392139753050233E-003  3.434807618553036E-003  3.478012179734408E-003  3.521760187394931E-003
3.566058477249814E-003  3.610913970996970E-003  3.656333677398556E-003  3.702324693376103E-003
3.748894205119426E-003  3.796049489209486E-003  3.843797913755358E-003  3.892146939545523E-003
3.941104121213625E-003  3.990677108418902E-003  4.040873647041469E-003  4.091701580392607E-003
4.143168850440314E-003  4.195283499050243E-003  4.248053669242267E-003  4.301487606462846E-003
4.355593659873379E-003  4.410380283654791E-003  4.465856038328513E-003  4.522029592094075E-003
4.578909722183545E-003  4.636505316232971E-003  4.694825373671102E-003  4.753879007125564E-003
4.813675443846733E-003  4.874224027149499E-003  4.935534217873195E-003  4.997615595859858E-003
5.060477861451098E-003  5.124130837003815E-003  5.188584468424936E-003  5.253848826725508E-003
5.319934109594294E-003  5.386850642991193E-003  5.454608882760693E-003  5.523219416265611E-003
5.592692964041400E-003  5.663040381471243E-003  5.734272660482233E-003  5.806400931262894E-003
5.879436464002277E-003  5.953390670650970E-003  6.028275106704219E-003  6.104101473007509E-003
6.180881617584850E-003  6.258627537490037E-003  6.337351380681236E-003  6.417065447919108E-003
6.497782194688837E-003  6.579514233146328E-003  6.662274334088871E-003  6.746075428950621E-003
6.830930611823142E-003  6.916853141501395E-003  7.003856443555456E-003  7.091954112428275E-003
7.181159913559858E-003  7.271487785538119E-003  7.362951842276822E-003  7.455566375220928E-003
7.549345855579625E-003  7.644304936587524E-003  7.740458455794223E-003  7.837821437382722E-003
7.936409094516988E-003  8.036236831719017E-003  8.137320247275858E-003  8.239675135676841E-003
8.343317490081520E-003  8.448263504818639E-003  8.554529577916508E-003  8.662132313665256E-003
8.771088525211260E-003  8.881415237184241E-003  8.993129688357417E-003  9.106249334341059E-003
9.220791850310004E-003  9.336775133765405E-003  9.454217307331271E-003  9.573136721586165E-003
9.693551957930502E-003  9.815481831489954E-003  9.938945394055329E-003  1.006396193705946E-002
1.019055099459156E-002  1.031873234644939E-002  1.044852602122998E-002  1.057995229945908E-002
1.071303171676005E-002  1.084778506706259E-002  1.098423340585186E-002  1.112239805345838E-002
1.126230059838946E-002  1.140396290070235E-002  1.154740709542003E-002  1.169265559598975E-002
1.183973109778523E-002  1.198865658165287E-002  1.213945531750249E-002  1.229215086794340E-002
1.244676709196599E-002  1.260332814866984E-002  1.276185850103860E-002  1.292238291976235E-002
1.308492648710810E-002  1.324951460083896E-002  1.341617297818253E-002  1.358492765984937E-002
1.375580501410181E-002  1.392883174087411E-002  1.410403487594434E-002  1.428144179515882E-002
1.446108021870962E-002  1.464297821546588E-002  1.482716420735969E-002  1.501366697382699E-002
1.520251565630449E-002  1.539373976278306E-002  1.558736917241836E-002  1.578343414019960E-002
1.598196530167690E-002  1.618299367774814E-002  1.638655067950609E-002  1.659266811314640E-002
1.680137818493745E-002  1.701271350625256E-002  1.722670709866565E-002  1.744339239911092E-002
1.766280326510740E-002  1.788497398004931E-002  1.810993925856287E-002  1.833773425193053E-002
1.856839455358348E-002  1.880195620466310E-002  1.903845569965259E-002  1.927792999207919E-002
1.952041650028829E-002  1.976595311329017E-002  2.001457819668014E-002  2.026633059863332E-002
2.052124965597471E-002  2.077937520032564E-002  2.104074756432760E-002  2.130540758794421E-002
2.157339662484263E-002  2.184475654885511E-002  2.211952976052183E-002  2.239775919371618E-002
2.267948832235313E-002  2.296476116718223E-002  2.325362230266588E-002  2.354611686394417E-002
2.384229055388741E-002  2.414218965023721E-002  2.444586101283752E-002  2.475335209095659E-002
2.506471093070094E-002  2.537998618252277E-002  2.569922710882160E-002  2.602248359164167E-002
2.634980614046610E-002  2.668124590010905E-002  2.701685465870733E-002  2.735668485581223E-002
2.770078959058348E-002  2.804922263008595E-002  2.840203841769094E-002  2.875929208158311E-002
2.912103944337424E-002  2.948733702682563E-002  2.985824206667992E-002  3.023381251760417E-002
3.061410706324549E-002  3.099918512540031E-002  3.138910687329931E-002  3.178393323300891E-002
3.218372589695106E-002  3.258854733354292E-002  3.299846079695756E-002  3.341353033700761E-002
3.383382080915318E-002  3.425939788463562E-002  3.469032806073882E-002  3.512667867117954E-002
3.556851789662840E-002  3.601591477536333E-002  3.646893921405685E-002  3.692766199869921E-002
3.739215480565877E-002  3.786249021288165E-002  3.833874171123212E-002  3.882098371597575E-002
3.930929157840692E-002  3.980374159762257E-002  4.030441103244420E-002  4.081137811348961E-002
4.132472205539664E-002  4.184452306920064E-002  4.237086237486754E-002  4.290382221398469E-002
4.344348586261129E-002  4.398993764429039E-002  4.454326294322462E-002  4.510354821761771E-002
4.567088101318367E-002  4.624534997682608E-002  4.682704487048928E-002  4.741605658518383E-002
4.801247715518854E-002  4.861639977243089E-002  4.922791880104852E-002  4.984712979213381E-002
5.047412949866387E-002  5.110901589061852E-002  5.175188817028817E-002  5.240284678777447E-002
5.306199345668579E-002  5.372943117003016E-002  5.440526421630824E-002  5.508959819580848E-002
5.578254003710747E-002  5.648419801377774E-002  5.719468176130563E-002  5.791410229422222E-002
5.864257202344943E-002  5.938020477386455E-002  6.012711580208556E-002  6.088342181448020E-002
6.164924098540164E-002  6.242469297565340E-002  6.320989895118663E-002  6.400498160203254E-002
6.481006516147290E-002  6.562527542545184E-002  6.645073977223166E-002  6.728658718229598E-002
6.813294825850318E-002  6.898995524649330E-002  6.985774205535185E-002  7.073644427853323E-002
7.162619921504754E-002  7.252714589091386E-002  7.343942508088323E-002  7.436317933043517E-002
7.529855297805055E-002  7.624569217776483E-002  7.720474492200499E-002  7.817586106471347E-002
7.915919234476333E-002  8.015489240966768E-002  8.116311683958745E-002  8.218402317164106E-002
8.321777092451992E-002  8.426452162341359E-002  8.532443882524844E-002  8.639768814424365E-002
8.748443727778887E-002  8.858485603264721E-002  8.969911635148793E-002  9.082739233975284E-002
9.196986029286061E-002  9.312669872375327E-002  9.429808839078926E-002  9.548421232598726E-002
9.668525586362534E-002  9.790140666919978E-002  9.913285476874825E-002  1.003797925785417E-001
1.016424149351498E-001  1.029209191258846E-001  1.042155049196271E-001  1.055263745980414E-001
1.068537329871817E-001  1.081977874894968E-001  1.095587481162374E-001  1.109368275202700E-001
1.123322410293054E-001  1.137452066795434E-001  1.151759452497415E-001  1.166246802957121E-001
1.180916381852537E-001  1.195770481335211E-001  1.210811422388407E-001  1.226041555189766E-001
1.241463259478524E-001  1.257078944927353E-001  1.272891051518873E-001  1.288902049926911E-001
1.305114441902540E-001  1.321530760664994E-001  1.338153571297476E-001  1.354985471147968E-001
1.372029090235067E-001  1.389287091658929E-001  1.406762172017390E-001  1.424457061827308E-001
1.442374525951217E-001  1.460517364029340E-001  1.478888410917038E-001  1.497490537127764E-001
1.516326649281584E-001  1.535399690559345E-001  1.554712641162551E-001  1.574268518779026E-001
1.594070379054434E-001  1.614121316069731E-001  1.634424462824619E-001  1.654982991727086E-001
1.675800115089099E-001  1.696879085628537E-001  1.718223196977431E-001  1.739835784196606E-001
1.761720224296784E-001  1.783879936766257E-001  1.806318384105181E-001  1.829039072366605E-001
1.852045551704296E-001  1.875341416927455E-001  1.898930308062422E-001  1.922815910921427E-001
1.947001957678513E-001  1.971492227452692E-001  1.996290546898443E-001  2.021400790803632E-001
2.046826882694955E-001  2.072572795451002E-001  2.098642551923019E-001  2.125040225563496E-001
2.151769941062645E-001  2.178835874992895E-001  2.206242256461489E-001  2.233993367771290E-001
2.262093545089900E-001  2.290547179127195E-001  2.319358715821383E-001  2.348532657033690E-001
2.378073561251786E-001  2.407986044302055E-001  2.438274780070833E-001  2.468944501234704E-001
2.500000000000001E-001  2.531446128851587E-001  2.563287801311073E-001  2.595529992704564E-001
2.628177740940061E-001  2.661236147294649E-001  2.694710377211580E-001  2.728605661107381E-001
2.762927295189120E-001  2.797680642281952E-001  2.832871132667067E-001  2.868504264930182E-001
2.904585606820709E-001  2.941120796121727E-001  2.978115541530896E-001  3.015575623552453E-001
3.053506895400426E-001  3.091915283913213E-001  3.130806790479662E-001  3.170187491976800E-001
3.210063541719355E-001  3.250441170421229E-001  3.291326687169056E-001  3.332726480408008E-001
3.374647018940009E-001  3.417094852934492E-001  3.460076614951880E-001  3.503599020979934E-001
3.547668871483144E-001  3.592293052465312E-001  3.637478536545505E-001  3.683232384047540E-001
3.729561744103178E-001  3.776473855769183E-001  3.823976049158448E-001  3.872075746585334E-001
3.920780463725423E-001  3.970097810789860E-001  4.020035493714459E-001  4.070601315363777E-001
4.121803176750322E-001  4.173649078269109E-001  4.226147120947730E-001  4.279305507712163E-001
4.333132544668490E-001  4.387636642400748E-001  4.442826317285098E-001  4.498710192820524E-001
4.555297000976274E-001  4.612595583556252E-001  4.670614893580558E-001  4.729363996684426E-001
4.788852072534742E-001  4.849088416264387E-001  4.910082439924620E-001  4.971843673955732E-001
5.034381768676194E-001  5.097706495790540E-001  5.161827749916218E-001  5.226755550129641E-001
5.292500041531689E-001  5.359071496832900E-001  5.426480317958609E-001  5.494737037674257E-001
5.563852321231172E-001  5.633836968033024E-001  5.704701913323261E-001  5.776458229893763E-001
5.849117129814980E-001  5.922689966187852E-001  5.997188234917747E-001  6.072623576510723E-001
6.149007777892377E-001  6.226352774249579E-001  6.304670650895373E-001  6.383973645157320E-001
6.464274148289618E-001  6.545584707409255E-001  6.627918027456520E-001  6.711286973180178E-001
6.795704571147616E-001  6.881184011780264E-001  6.967738651414629E-001  7.055382014389254E-001
7.144127795157913E-001  7.233989860429405E-001  7.324982251334257E-001  7.417119185618671E-001
7.510415059866087E-001  7.604884451746663E-001  7.700542122295082E-001  7.797403018216984E-001
7.895482274224422E-001  7.994795215400693E-001  8.095357359594906E-001  8.197184419846688E-001
8.300292306841373E-001  8.404697131396076E-001  8.510415206977052E-001  8.617463052248691E-001
8.725857393654607E-001  8.835615168031178E-001  8.946753525253951E-001  9.059289830917360E-001
9.173241669048116E-001  9.288626844852764E-001  9.405463387499780E-001  9.523769552936656E-001
9.643563826742441E-001  9.764864927016135E-001  9.887691807301447E-001  1.001206365954832E+000
1.013799991711169E+000  1.026552025778804E+000  1.039464460689002E+000  1.052539314035991E+000
1.065778628792205E+000  1.079184473627512E+000  1.092758943232440E+000  1.106504158645484E+000
1.120422267584517E+000  1.134515444782376E+000  1.148785892326673E+000  1.163235840003868E+000
1.177867545647686E+000  1.192683295491901E+000  1.207685404527570E+000  1.222876216864752E+000
1.238258106098779E+000  1.253833475681140E+000  1.269604759295021E+000  1.285574421235572E+000
1.301744956794963E+000  1.318118892652274E+000  1.334698787268295E+000  1.351487231285292E+000
1.368486847931800E+000  1.385700293432506E+000  1.403130257423290E+000  1.420779463371487E+000
1.438650669001433E+000  1.456746666725369E+000  1.475070284079755E+000  1.493624384167082E+000
1.512411866103237E+000  1.531435665470497E+000  1.550698754776217E+000  1.570204143917292E+000
1.589954880650459E+000  1.609954051068516E+000  1.630204780082529E+000  1.650710231910107E+000
1.671473610569818E+000  1.692498160381820E+000  1.713787166474795E+000  1.735343955299260E+000
1.757171895147324E+000  1.779274396679000E+000  1.801654913455118E+000  1.824316942476959E+000
1.847264024732663E+000  1.870499745750521E+000  1.894027736159212E+000  1.917851672255108E+000
1.941975276576694E+000  1.966402318486224E+000  1.991136614758694E+000  2.016182030178219E+000
2.041542478141914E+000  2.067221921271369E+000  2.093224372031817E+000  2.119553893359094E+000
2.146214599294474E+000  2.173210655627502E+000  2.200546280546903E+000  2.228225745299685E+000
2.256253374858532E+000  2.284633548597582E+000  2.313370700976725E+000  2.342469322234484E+000
2.371933959089632E+000  2.401769215451627E+000  2.431979753139972E+000  2.462570292612647E+000
2.493545613703682E+000  2.524910556370014E+000  2.556670021447751E+000  2.588828971417924E+000
2.621392431181895E+000  2.654365488846503E+000  2.687753296519090E+000  2.721561071112536E+000
2.755794095160401E+000  2.790457717642343E+000  2.825557354819897E+000  2.861098491082782E+000
2.897086679805849E+000  2.933527544216803E+000  2.970426778274851E+000  3.007790147560385E+000
3.045623490175870E+000  3.083932717658065E+000  3.122723815901703E+000  3.162002846094808E+000
3.201775945665760E+000  3.242049329242285E+000  3.282829289622506E+000  3.324122198758197E+000
3.365934508750424E+000  3.408272752857691E+000  3.451143546516775E+000  3.494553588376410E+000
3.538509661343952E+000  3.583018633645234E+000  3.628087459897731E+000  3.673723182197237E+000
3.719932931218211E+000  3.766723927327948E+000  3.814103481714791E+000  3.862078997530507E+000
3.910657971047045E+000  3.959847992827856E+000  4.009656748913919E+000  4.060092022024711E+000
4.111161692774266E+000  4.162873740902538E+000  4.215236246522260E+000  4.268257391381465E+000
4.321945460141912E+000  4.376308841673572E+000  4.431356030365412E+000  4.487095627452662E+000
4.543536342360767E+000  4.600686994066264E+000  4.658556512474754E+000  4.717153939816223E+000
4.776488432057914E+000  4.836569260334954E+000  4.897405812399001E+000  4.959007594085083E+000
5.021384230796919E+000  5.084545469010905E+000  5.148501177799009E+000  5.213261350370854E+000
5.278836105635157E+000  5.345235689780838E+000  5.412470477878017E+000  5.480550975499118E+000
5.549487820360412E+000  5.619291783984156E+000  5.689973773381684E+000  5.761544832757648E+000
5.834016145235680E+000  5.907399034605807E+000  5.981704967093788E+000  6.056945553152747E+000
6.133132549277341E+000  6.210277859840712E+000  6.288393538954594E+000  6.367491792352774E+000
6.447584979298268E+000  6.528685614514495E+000  6.610806370140700E+000  6.693960077712034E+000
6.778159730164477E+000  6.863418483865028E+000  6.949749660667420E+000  7.037166749993664E+000
7.125683410941823E+000  7.215313474420259E+000  7.306070945308738E+000  7.397970004646742E+000
7.491025011849256E+000  7.585250506950484E+000  7.680661212875734E+000  7.777272037741919E+000
7.875098077186988E+000  7.974154616728629E+000  8.074457134152674E+000  8.176021301931543E+000
8.278862989673081E+000  8.382998266600238E+000  8.488443404061892E+000  8.595214878075300E+000
8.703329371900512E+000  8.812803778647140E+000  8.923655203913974E+000  9.035900968461737E+000
9.149558610919502E+000  9.264645890525149E+000  9.381180789900254E+000  9.499181517859945E+000
9.618666512258038E+000  9.739654442867996E+000  9.862164214300138E+000  9.986214968955489E+000
1.011182609001685E+001  1.023901720447746E+001  1.036780818620769E+001  1.049821915906050E+001
1.063027050001570E+001  1.076398284236399E+001  1.089937707893088E+001  1.103647436534131E+001
1.117529612332521E+001  1.131586404406470E+001  1.145820009158337E+001  1.160232650617825E+001
1.174826580789483E+001  1.189604080004593E+001  1.204567457277471E+001  1.219719050666261E+001
1.235061227638255E+001  1.250596385439819E+001  1.266326951470967E+001  1.282255383664643E+001
1.298384170870787E+001  1.314715833245212E+001  1.331252922643391E+001  1.347998023019189E+001
1.364953750828607E+001  1.382122755438611E+001  1.399507719541104E+001  1.417111359572096E+001
1.434936426136156E+001  1.452985704436201E+001  1.471262014708685E+001  1.489768212664275E+001
1.508507189934050E+001  1.527481874521334E+001  1.546695231259199E+001  1.566150262273722E+001
1.585850007453084E+001  1.605797544922547E+001  1.625995991525425E+001  1.646448503310094E+001
1.667158276023130E+001  1.688128545608654E+001  1.709362588713954E+001  1.730863723201466E+001
1.752635308667198E+001  1.774680746965673E+001  1.797003482741477E+001  1.819607003967492E+001
1.842494842489896E+001  1.865670574580025E+001  1.889137821493167E+001  1.912900250034397E+001
1.936961573131522E+001  1.961325550415229E+001  1.985995988806535E+001  2.010976743111633E+001
2.036271716624204E+001  2.061884861735326E+001  2.087820180551032E+001  2.114081725517652E+001
2.140673600055016E+001  2.167599959197623E+001  2.194865010243871E+001  2.222473013413458E+001
2.250428282513047E+001  2.278735185610311E+001  2.307398145716447E+001  2.336421641477292E+001
2.365810207873104E+001  2.395568436927174E+001  2.425700978423336E+001  2.456212540632502E+001
2.487107891048347E+001  2.518391857132228E+001  2.550069327067494E+001  2.582145250523271E+001
2.614624639427856E+001  2.647512568751848E+001  2.680814177301114E+001  2.714534668519742E+001
2.748679311303090E+001  2.783253440821059E+001  2.818262459351731E+001  2.853711837125476E+001
2.889607113179694E+001  2.925953896224298E+001  2.962757865518083E+001  3.000024771756136E+001
3.037760437968374E+001  3.075970760429416E+001  3.114661709579886E+001  3.153839330959304E+001
3.193509746150723E+001  3.233679153737224E+001  3.274353830270468E+001  3.315540131251417E+001
3.357244492123388E+001  3.399473429277624E+001  3.442233541071468E+001  3.485531508859383E+001
3.529374098036925E+001  3.573768159097850E+001  3.618720628704525E+001  3.664238530771780E+001
3.710328977564419E+001  3.756999170808525E+001  3.804256402816740E+001  3.852108057627719E+001
3.900561612159878E+001  3.949624637379690E+001  3.999304799484667E+001  4.049609861101209E+001
4.100547682497546E+001  4.152126222811903E+001  4.204353541296140E+001  4.257237798575029E+001
4.310787257921358E+001  4.365010286547108E+001  4.419915356910811E+001  4.475511048041421E+001
4.531806046878784E+001  4.588809149631000E+001  4.646529263148854E+001  4.704975406317512E+001
4.764156711465754E+001  4.824082425792915E+001  4.884761912813774E+001  4.946204653821639E+001
5.008420249369796E+001  5.071418420771627E+001  5.135209011619584E+001  5.199801989323266E+001
5.265207446666864E+001  5.331435603386151E+001  5.398496807765358E+001  5.466401538254105E+001
5.535160405104679E+001  5.604784152029927E+001  5.675283657881953E+001  5.746669938351976E+001
5.818954147691557E+001  5.892147580455465E+001  5.966261673266492E+001  6.041308006602419E+001
6.117298306605515E+001  6.194244446914758E+001  6.272158450521115E+001  6.351052491646176E+001
6.430938897644374E+001  6.511830150929175E+001  6.593738890923481E+001  6.676677916034554E+001
6.760660185653819E+001  6.845698822181764E+001  6.931807113078355E+001  7.018998512939238E+001
7.107286645598023E+001  7.196685306255077E+001  7.287208463633004E+001  7.378870262159313E+001
7.471685024176514E+001  7.565667252179996E+001  7.660831631084108E+001  7.757193030516660E+001
7.854766507142362E+001  7.953567307015452E+001  8.053610867961913E+001  8.154912821991701E+001
8.257488997741223E+001  8.361355422946633E+001  8.466528326948189E+001  8.573024143226110E+001
8.680859511968369E+001  8.790051282670720E+001  8.900616516769486E+001  9.012572490307443E+001
9.125936696633222E+001  9.240726849134722E+001  9.356960884006804E+001  9.474656963053897E+001
9.593833476527806E+001  9.714509046001220E+001  9.836702527277403E+001  9.960433013336399E+001
1.008571983731839E+002
</PP_R>
<PP_RAB type="real" size="1041" columns="4">
2.849631142357863E-006  2.885475089590695E-006  2.921769898176819E-006  2.958521239253919E-006
2.995734855293812E-006  3.033416560999715E-006  3.071572244214808E-006  3.110207866842223E-006
3.149329465776596E-006  3.188943153847358E-006  3.229055120773866E-006  3.269671634132558E-006
3.310799040336282E-006  3.352443765625928E-006  3.394612317074556E-006  3.437311283604120E-006
3.480547337015010E-006  3.524327233028539E-006  3.568657812342524E-006  3.613546001700181E-006
3.658998814972420E-006  3.705023354253790E-006  3.751626810972190E-006  3.798816467012546E-006
3.846599695854628E-006  3.894983963725155E-006  3.943976830764421E-006  3.993585952207576E-006
4.043819079580775E-006  4.094684061912375E-006  4.146188846959348E-006  4.198341482449146E-006
4.251150117337169E-006  4.304623003080054E-006  4.358768494924996E-006  4.413595053215255E-006
4.469111244712108E-006  4.525325743933424E-006  4.582247334509073E-006  4.639884910553397E-006
4.698247478054914E-006  4.757344156283536E-006  4.817184179215470E-006  4.877776896976039E-006
4.939131777300678E-006  5.001258407014263E-006  5.064166493529084E-006  5.127865866361644E-006
5.192366478668544E-006  5.257678408801691E-006  5.323811861883044E-006  5.390777171399195E-006
5.458584800815999E-006  5.527245345213502E-006  5.596769532941468E-006  5.667168227295673E-006
5.738452428215335E-006  5.810633274001879E-006  5.883722043059305E-006  5.957730155656489E-006
6.032669175711592E-006  6.108550812598960E-006  6.185386922978740E-006  6.263189512649498E-006
6.341970738424169E-006  6.421742910029560E-006  6.502518492029780E-006  6.584310105773857E-006
6.667130531367838E-006  6.750992709671733E-006  6.835909744321517E-006  6.921894903776615E-006
7.008961623393135E-006  7.097123507523147E-006  7.186394331640426E-006  7.276788044492856E-006
7.368318770281978E-006  7.461000810869918E-006  7.554848648014074E-006  7.649876945629948E-006
7.746100552082370E-006  7.843534502505621E-006  7.942194021152683E-006  8.042094523774062E-006
8.143251620026557E-006  8.245681115912255E-006  8.349399016248283E-006  8.454421527167584E-006
8.560765058651152E-006  8.668446227092153E-006  8.777481857892228E-006  8.887888988090524E-006
8.999684869025760E-006  9.112886969031774E-006  9.227512976167022E-006  9.343580800978314E-006
9.461108579299424E-006  9.580114675084824E-006  9.700617683279090E-006  9.822636432722439E-006
9.946189989092710E-006  1.007129765788446E-005  1.019797898742546E-005  1.032625377193119E-005
1.045614205459773E-005  1.058766413073347E-005  1.072084055093042E-005  1.085569212427517E-005
1.099223992160040E-005  1.113050527877728E-005  1.127050980004916E-005  1.141227536140732E-005
1.155582411400916E-005  1.170117848763931E-005  1.184836119421440E-005  1.199739523133176E-005
1.214830388586291E-005  1.230111073759214E-005  1.245583966290091E-005  1.261251483849862E-005
1.277116074520021E-005  1.293180217175137E-005  1.309446421870181E-005  1.325917230232731E-005
1.342595215860106E-005  1.359482984721490E-005  1.376583175565127E-005  1.393898460330626E-005
1.411431544566458E-005  1.429185167852710E-005  1.447162104229139E-005  1.465365162628629E-005
1.483797187316087E-005  1.502461058332872E-005  1.521359691946801E-005  1.540496041107829E-005
1.559873095909443E-005  1.579493884055879E-005  1.599361471335205E-005  1.619478962098352E-005
1.639849499744183E-005  1.660476267210649E-005  1.681362487472132E-005  1.702511424043041E-005
1.723926381487741E-005  1.745610705936906E-005  1.767567785610346E-005  1.789801051346433E-005