<UPF version="2.0.1">
<PP_INFO>
Generated in analytical, separable form
Author: Goedecker/Hartwigsen/Hutter/Teter
Generation date: Phys.Rev.B58, 3641 (1998); B54, 1703 (1996)
Pseudopotential type: NC
Element: Fe
Functional: SLA-PW-PBX-PBC

Suggested minimum cutoff for wavefunctions:   0. Ry
Suggested minimum cutoff for charge density:   0. Ry
The Pseudo was generated with a Non-Relativistic Calculation
Local Potential: unknown format, L component and cutoff radius: -3   0.0000

Valence configuration:
nl pn  l   occ       Rcut    Rcut US       E pseu

Generation configuration: not available.
Converted from CPMD format using cpmd2upf v.5.0.1 - PG 10Jul2012
Atomic orbitals could not be generated by ld1.x - use with care
</PP_INFO>
<!--                               -->
<!-- END OF HUMAN READABLE SECTION -->
<!--                               -->
<PP_HEADER generated="Generated in analytical, separable form"
author="Goedecker/Hartwigsen/Hutter/Teter"
date="Phys.Rev.B58, 3641 (1998); B54, 1703 (1996)"
comment="Atomic orbitals could not be generated by ld1.x - use with care"
element="Fe"
pseudo_type="NC"
relativistic="no"
is_ultrasoft="F"
is_paw="F"
is_coulomb="F"
has_so="F"
has_wfc="F"
has_gipaw="F"
paw_as_gipaw="F"
core_correction="F"
functional="SLA-PW-PBX-PBC"
z_valence="1.600000000000000E+001"
total_psenergy="0.000000000000000E+000"
wfc_cutoff="0.000000000000000E+000"
rho_cutoff="0.000000000000000E+000"
l_max="2"
l_max_rho="0"
l_local="-3"
mesh_size="1191"
number_of_wfc="0"
number_of_proj="5"/>
<PP_MESH dx="1.250000000000000E-002" mesh="1191" xmin="-7.000000000000000E+000" rmax="1.011802380884284E+002"
zmesh="2.600000000000000E+001">
<PP_R type="real" size="1191" columns="4">
3.507238329055831E-005  3.551353956419316E-005  3.596024490063778E-005  3.641256909850977E-005
3.687058283438538E-005  3.733435767384265E-005  3.780396608264379E-005  3.827948143805812E-005
3.876097804032732E-005  3.924853112427518E-005  3.974221687106296E-005  4.024211242009302E-005
4.074829588106193E-005  4.126084634616526E-005  4.177984390245608E-005  4.230536964435839E-005
4.283750568633858E-005  4.337633517573586E-005  4.392194230575413E-005  4.447441232861761E-005
4.503383156889132E-005  4.560028743696972E-005  4.617386844273465E-005  4.675466420938518E-005
4.734276548744158E-005  4.793826416892498E-005  4.854125330171594E-005  4.915182710409325E-005
4.977008097945569E-005  5.039611153122924E-005  5.103001657796121E-005  5.167189516860488E-005
5.232184759799592E-005  5.297997542252373E-005  5.364638147599995E-005  5.432116988572622E-005
5.500444608876440E-005  5.569631684841137E-005  5.639689027088089E-005  5.710627582219565E-005
5.782458434529124E-005  5.855192807733583E-005  5.928842066726732E-005  6.003417719355124E-005
6.078931418216220E-005  6.155394962479094E-005  6.232820299728103E-005  6.311219527829716E-005
6.390604896822823E-005  6.470988810832850E-005  6.552383830009900E-005  6.634802672491317E-005
6.718258216388922E-005  6.802763501801234E-005  6.888331732851038E-005  6.974976279748520E-005
7.062710680880412E-005  7.151548644925388E-005  7.241504052996067E-005  7.332590960807986E-005
7.424823600875805E-005  7.518216384737181E-005  7.612783905204602E-005  7.708540938645534E-005
7.805502447291284E-005  7.903683581574842E-005  8.003099682498190E-005  8.103766284029362E-005
8.205699115529647E-005  8.308914104211363E-005  8.413427377626481E-005  8.519255266186604E-005
8.626414305714629E-005  8.734921240028488E-005  8.844793023557446E-005  8.956046823991207E-005
9.068700024962434E-005  9.182770228762974E-005  9.298275259094244E-005  9.415233163852242E-005
9.533662217947532E-005  9.653580926160763E-005  9.775008026034071E-005  9.897962490798846E-005
1.002246353234038E-004  1.014853060419970E-004  1.027618340461327E-004  1.040544187959087E-004
1.053632622603219E-004  1.066885689488265E-004  1.080305459432890E-004  1.093894029303449E-004
1.107653522341632E-004  1.121586088496218E-004  1.135693904759018E-004  1.149979175505023E-004
1.164444132836852E-004  1.179091036933517E-004  1.193922176403580E-004  1.208939868642762E-004
1.224146460196026E-004  1.239544327124241E-004  1.255135875375442E-004  1.270923541160762E-004
1.286909791335105E-004  1.303097123782581E-004  1.319488067806821E-004  1.336085184526174E-004
1.352891067273896E-004  1.369908342003358E-004  1.387139667698358E-004  1.404587736788594E-004
1.422255275570358E-004  1.440145044632531E-004  1.458259839287926E-004  1.476602490010063E-004
1.495175862875435E-004  1.513982860011340E-004  1.533026420049343E-004  1.552309518584446E-004
1.571835168640026E-004  1.591606421138630E-004  1.611626365378684E-004  1.631898129517208E-004
1.652424881058592E-004  1.673209827349526E-004  1.694256216080156E-004  1.715567335791539E-004
1.737146516389487E-004  1.758997129664874E-004  1.781122589820479E-004  1.803526354004466E-004
1.826211922850568E-004  1.849182841025073E-004  1.872442697780678E-004  1.895995127517328E-004
1.919843810350083E-004  1.943992472684159E-004  1.968444887797175E-004  1.993204876428740E-004
2.018276307377456E-004  2.043663098105414E-004  2.069369215350316E-004  2.095398675745280E-004
2.121755546446451E-004  2.148443945768500E-004  2.175468043828118E-004  2.202832063195610E-004
2.230540279554672E-004  2.258597022370482E-004  2.287006675566190E-004  2.315773678207907E-004
2.344902525198322E-004  2.374397767979041E-004  2.404264015241754E-004  2.434505933648364E-004
2.465128248560147E-004  2.496135744776110E-004  2.527533267280623E-004  2.559325722000452E-004
2.591518076571333E-004  2.624115361114164E-004  2.657122669020974E-004  2.690545157750776E-004
2.724388049635430E-004  2.758656632695653E-004  2.793356261467266E-004  2.828492357837860E-004
2.864070411893978E-004  2.900095982778950E-004  2.936574699561523E-004  2.973512262115412E-004
3.010914442009913E-004  3.048787083411732E-004  3.087136103998136E-004  3.125967495881619E-004
3.165287326546166E-004  3.205101739795311E-004  3.245416956712130E-004  3.286239276631284E-004
3.327575078123321E-004  3.369430819991319E-004  3.411813042280099E-004  3.454728367298125E-004
3.498183500652237E-004  3.542185232295438E-004  3.586740437587818E-004  3.631856078370851E-004
3.677539204055197E-004  3.723796952722186E-004  3.770636552239164E-004  3.818065321388851E-004
3.866090671012918E-004  3.914720105169953E-004  3.963961222307977E-004  4.013821716451733E-004
4.064309378404867E-004  4.115432096967280E-004  4.167197860167754E-004  4.219614756512107E-004
4.272690976247041E-004  4.326434812639871E-004  4.380854663274376E-004  4.435959031362935E-004
4.491756527075170E-004  4.548255868883315E-004  4.605465884924470E-004  4.663395514380038E-004
4.722053808872480E-004  4.781449933879647E-004  4.841593170166923E-004  4.902492915237334E-004
4.964158684799951E-004  5.026600114256727E-004  5.089826960208050E-004  5.153849101977242E-004
5.218676543154205E-004  5.284319413158517E-004  5.350787968822166E-004  5.418092595992201E-004
5.486243811153560E-004  5.555252263072261E-004  5.625128734459316E-004  5.695884143655543E-004
5.767529546337578E-004  5.840076137245364E-004  5.913535251931320E-004  5.987918368531573E-004
6.063237109559423E-004  6.139503243721388E-004  6.216728687756106E-004  6.294925508296318E-004
6.374105923754329E-004  6.454282306231143E-004  6.535467183449641E-004  6.617673240712070E-004
6.700913322882121E-004  6.785200436391985E-004  6.870547751274635E-004  6.956968603221653E-004
7.044476495666992E-004  7.133085101896879E-004  7.222808267186311E-004  7.313660010962406E-004
7.405654528994973E-004  7.498806195614613E-004  7.593129565958762E-004  7.688639378245934E-004
7.785350556078612E-004  7.883278210775099E-004  7.982437643730670E-004  8.082844348808473E-004
8.184514014760452E-004  8.287462527678759E-004  8.391705973477989E-004  8.497260640408632E-004
8.604143021602155E-004  8.712369817648066E-004  8.821957939203434E-004  8.932924509635221E-004
9.045286867695810E-004  9.159062570232261E-004  9.274269394929567E-004  9.390925343088475E-004
9.509048642438230E-004  9.628657749984672E-004  9.749771354894209E-004  9.872408381414012E-004
9.996587991828979E-004  1.012232958945589E-003  1.024965282167519E-003  1.037857758300096E-003
1.050912401818945E-003  1.064131252538676E-003  1.077516375931608E-003  1.091069863450504E-003
1.104793832855363E-003  1.118690428544326E-003  1.132761821888742E-003  1.147010211572450E-003
1.161437823935327E-003  1.176046913321157E-003  1.190839762429880E-003  1.205818682674265E-003
1.220986014541075E-003  1.236344127956772E-003  1.251895422657824E-003  1.267642328565668E-003
1.283587306166388E-003  1.299732846895175E-003  1.316081473525617E-003  1.332635740563886E-003
1.349398234647886E-003  1.366371574951422E-003  1.383558413593449E-003  1.400961436052471E-003
1.418583361586154E-003  1.436426943656216E-003  1.454494970358657E-003  1.472790264859410E-003
1.491315685835462E-003  1.510074127921531E-003  1.529068522162358E-003  1.548301836470687E-003
1.567777076091009E-003  1.587497284069136E-003  1.607465541727689E-003  1.627684969147551E-003
1.648158725655392E-003  1.668890010317322E-003  1.689882062438747E-003  1.711138162070520E-003
1.732661630521455E-003  1.754455830877285E-003  1.776524168526159E-003  1.798870091690730E-003
1.821497091966959E-003  1.844408704869672E-003  1.867608510384999E-003  1.891100133529753E-003
1.914887244917844E-003  1.938973561333822E-003  1.963362846313631E-003  1.988058910732669E-003
2.013065613401247E-003  2.038386861667532E-003  2.064026612028082E-003  2.089988870746057E-003
2.116277694477201E-003  2.142897190903709E-003  2.169851519376053E-003  2.197144891562896E-003
2.224781572109172E-003  2.252765879302443E-003  2.281102185747644E-003  2.309794919050307E-003
2.338848562508384E-003  2.368267655812779E-003  2.398056795756671E-003  2.428220636953785E-003
2.458763892565677E-003  2.489691335038175E-003  2.521007796847091E-003  2.552718171253292E-003
2.584827413067300E-003  2.617340539423470E-003  2.650262630563946E-003  2.683598830632449E-003
2.717354348478061E-003  2.751534458469125E-003  2.786144501317365E-003  2.821189884912390E-003
2.856676085166689E-003  2.892608646871246E-003  2.928993184561937E-003  2.965835383396798E-003
3.003141000044353E-003  3.040915863583103E-003  3.079165876412329E-003  3.117897015174357E-003
3.157115331688417E-003  3.196826953896253E-003  3.237038086819631E-003  3.277755013529878E-003
3.318984096129636E-003  3.360731776746939E-003  3.403004578541820E-003  3.445809106725566E-003
3.489152049592789E-003  3.533040179566497E-003  3.577480354256290E-003  3.622479517529873E-003
3.668044700598064E-003  3.714183023113416E-003  3.760901694282696E-003  3.808208013993321E-003
3.856109373953990E-003  3.904613258849657E-003  3.953727247511015E-003  4.003459014098719E-003
4.053816329302477E-003  4.104807061555239E-003  4.156439178262666E-003  4.208720747048035E-003
4.261659937012842E-003  4.315265020013222E-003  4.369544371952453E-003  4.424506474089708E-003
4.480159914365268E-003  4.536513388742404E-003  4.593575702566141E-003  4.651355771939104E-003
4.709862625114690E-003  4.769105403907740E-003  4.829093365122971E-003  4.889835882001371E-003
4.951342445684778E-003  5.013622666698912E-003  5.076686276455009E-003  5.140543128770402E-003
5.205203201408182E-003  5.270676597636249E-003  5.336973547805973E-003  5.404104410950698E-003
5.472079676404369E-003  5.540909965440512E-003  5.610606032931824E-003  5.681178769030648E-003
5.752639200870580E-003  5.824998494289484E-003  5.898267955574173E-003  5.972459033227039E-003
6.047583319754911E-003  6.123652553480395E-003  6.200678620376030E-003  6.278673555921478E-003
6.357649546984099E-003  6.437618933723175E-003  6.518594211518083E-003  6.600588032920722E-003
6.683613209632506E-003  6.767682714506214E-003  6.852809683573019E-003  6.939007418095032E-003
7.026289386643642E-003  7.114669227204013E-003  7.204160749306043E-003  7.294777936182128E-003
7.386534946952083E-003  7.479446118835522E-003  7.573525969392080E-003  7.668789198789817E-003
7.765250692102133E-003  7.862925521633618E-003  7.961828949275104E-003  8.061976428888380E-003
8.163383608720891E-003  8.266066333850795E-003  8.370040648662806E-003  8.475322799355150E-003
8.581929236478072E-003  8.689876617504267E-003  8.799181809431634E-003  8.909861891418803E-003
9.021934157453757E-003  9.135416119056085E-003  9.250325508013163E-003  9.366680279150800E-003
9.484498613138713E-003  9.603798919331292E-003  9.724599838644097E-003  9.846920246466544E-003
9.970779255611215E-003  1.009619621930028E-002  1.022319073418949E-002  1.035178264343015E-002
1.048199203976972E-002  1.061383926869128E-002  1.074734493159259E-002  1.088252988900511E-002
1.101941526385347E-002  1.115802244475598E-002  1.129837308936665E-002  1.144048912775926E-002
1.158439276585393E-002  1.173010648888690E-002  1.187765306492384E-002  1.202705554841746E-002
1.217833728380974E-002  1.233152190917964E-002  1.248663335993653E-002  1.264369587256016E-002
1.280273398838768E-002  1.296377255744825E-002  1.312683674234591E-002  1.329195202219133E-002
1.345914419658290E-002  1.362843938963803E-002  1.379986405407507E-002  1.397344497534659E-002
1.414920927582471E-002  1.432718441903896E-002  1.450739821396758E-002  1.468987881938266E-002
1.487465474825005E-002  1.506175487218458E-002  1.525120842596127E-002  1.544304501208334E-002
1.563729460540766E-002  1.583398755782841E-002  1.603315460301956E-002  1.623482686123714E-002
1.643903584418180E-002  1.664581345992259E-002  1.685519201788267E-002  1.706720423388769E-002
1.728188323527776E-002  1.749926256608361E-002  1.771937619226792E-002  1.794225850703263E-002
1.816794433619288E-002  1.839646894361862E-002  1.862786803674472E-002  1.886217777215024E-002
1.909943476120806E-002  1.933967607580543E-002  1.958293925413651E-002  1.982926230656786E-002
2.007868372157754E-002  2.033124247176913E-002  2.058697801996117E-002  2.084593032535336E-002
2.110813984977026E-002  2.137364756398352E-002  2.164249495411369E-002  2.191472402811243E-002
2.219037732232642E-002  2.246949790814369E-002  2.275212939872366E-002  2.303831595581176E-002
2.332810229663975E-002  2.362153370091300E-002  2.391865601788540E-002  2.421951567352347E-002
2.452415967776052E-002  2.483263563184201E-002  2.514499173576337E-002  2.546127679580132E-002
2.578154023213998E-002  2.610583208659287E-002  2.643420303042202E-002  2.676670437225547E-002
2.710338806610437E-002  2.744430671948088E-002  2.778951360161817E-002  2.813906265179393E-002
2.849300848775839E-002  2.885140641426854E-002  2.921431243172957E-002  2.958178324494503E-002
2.995387627197712E-002  3.033064965311834E-002  3.071216225997605E-002  3.109847370467126E-002
3.148964434915316E-002  3.188573531463080E-002  3.228680849112337E-002  3.269292654713071E-002
3.310415293942531E-002  3.352055192296762E-002  3.394218856094599E-002  3.436912873494292E-002
3.480143915522923E-002  3.523918737118761E-002  3.568244178186743E-002  3.613127164667216E-002
3.658574709618132E-002  3.704593914310855E-002  3.751191969339743E-002  3.798376155745699E-002
3.846153846153848E-002  3.894532505925519E-002  3.943519694324728E-002  3.993123065699329E-002
4.043350370677017E-002  4.094209457376384E-002  4.145708272633200E-002  4.197854863242124E-002
4.250657377214032E-002  4.304124065049157E-002  4.358263281026257E-002  4.413083484507972E-002
4.468593241262629E-002  4.524801224802658E-002  4.581716217739840E-002  4.639347113157620E-002
4.697702916000655E-002  4.756792744481866E-002  4.816625831507172E-002  4.877211526118153E-002
4.938559294952854E-002  5.000678723724968E-002  5.063579518721624E-002  5.127271508320012E-002
5.191764644523091E-002  5.257069004514604E-002  5.323194792233661E-002  5.390152339969130E-002
5.457952109974069E-002  5.526604696100480E-002  5.596120825454623E-002  5.666511360073138E-002
5.737787298620273E-002  5.809959778106435E-002  5.883040075628383E-002  5.957039610131284E-002
6.031969944192959E-002  6.107842785830554E-002  6.184669990329937E-002  6.262463562098118E-002
6.341235656538957E-002  6.420998581952475E-002  6.501764801458046E-002  6.583546934941789E-002
6.666357761028446E-002  6.750210219078075E-002  6.835117411207843E-002  6.921092604339267E-002
7.008149232271191E-002  7.096300897778848E-002  7.185561374739320E-002  7.275944610283733E-002
7.367464726976526E-002  7.460136025022134E-002  7.553972984499414E-002  7.648990267624203E-002
7.745202721040298E-002  7.842625378139292E-002  7.941273461409566E-002  8.041162384814833E-002
8.142307756202599E-002  8.244725379742923E-002  8.348431258397859E-002  8.453441596421933E-002
8.559772801894111E-002  8.667441489281574E-002  8.776464482035787E-002  8.886858815221174E-002
8.998641738176892E-002  9.111830717212080E-002  9.226443438334996E-002  9.342497810016497E-002
9.460011965988271E-002  9.579004268076276E-002  9.699493309069805E-002  9.821497915626647E-002
9.945037151214797E-002  1.007013031909116E-001  1.019679696531772E-001  1.032505688181566E-001
1.045493010945787E-001  1.058643694120041E-001  1.071959792525328E-001  1.085443386829116E-001
1.099096583870448E-001  1.112921516989139E-001  1.126920346359116E-001  1.141095259325949E-001
1.155448470748629E-001  1.169982223345640E-001  1.184698788045397E-001  1.199600464341074E-001
1.214689580649911E-001  1.229968494677030E-001  1.245439593783832E-001  1.261105295361029E-001
1.276968047206365E-001  1.293030327907089E-001  1.309294647227239E-001  1.325763546499799E-001
1.342439599023786E-001  1.359325410466335E-001  1.376423619269839E-001  1.393736897064209E-001
1.411267949084326E-001  1.429019514592733E-001  1.446994367307659E-001  1.465195315836409E-001
1.483625204114222E-001  1.502286911848636E-001  1.521183354969453E-001  1.540317486084356E-001
1.559692294940260E-001  1.579310808890467E-001  1.599176093367696E-001  1.619291252363063E-001
1.639659428911084E-001  1.660283805580787E-001  1.681167604972985E-001  1.702314090223822E-001
1.723726565514641E-001  1.745408376588271E-001  1.767362911271804E-001  1.789593600005951E-001
1.812103916381055E-001  1.834897377679848E-001  1.857977545427031E-001  1.881348025945772E-001
1.905012470921199E-001  1.928974577970985E-001  1.953238091223109E-001  1.977806801900880E-001
2.002684548915327E-001  2.027875219465036E-001  2.053382749643530E-001  2.079211125054296E-001
2.105364381433539E-001  2.131846605280779E-001  2.158661934497369E-001  2.185814559033056E-001
2.213308721540667E-001  2.241148718039029E-001  2.269338898584238E-001  2.297883667949357E-001
2.326787486312673E-001  2.356054869954611E-001  2.385690391963411E-001  2.415698682949680E-001
2.446084431769937E-001  2.476852386259255E-001  2.508007353973121E-001  2.539554202938627E-001
2.571497862415105E-001  2.603843323664338E-001  2.636595640730455E-001  2.669759931229630E-001
2.703341377149729E-001  2.737345225659999E-001  2.771776789930950E-001  2.806641449964552E-001
2.841944653434866E-001  2.877691916539263E-001  2.913888824860326E-001  2.950541034238628E-001
2.987654271656453E-001  3.025234336132652E-001  3.063287099628760E-001  3.101818507966491E-001
3.140834581756791E-001  3.180341417340567E-001  3.220345187741257E-001  3.260852143629376E-001
3.301868614299191E-001  3.343401008657695E-001  3.385455816226005E-001  3.428039608153362E-001
3.471159038243895E-001  3.514820843996280E-001  3.559031847656499E-001  3.603798957283821E-001
3.649129167830204E-001  3.695029562233272E-001  3.741507312523034E-001  3.788569680942535E-001
3.836224021082587E-001  3.884477779030791E-001  3.933338494535002E-001  3.982813802181421E-001
4.032911432587530E-001  4.083639213610004E-001  4.135005071567831E-001  4.187017032480825E-001
4.239683223323694E-001  4.293011873295913E-001  4.347011315107535E-001  4.401689986281203E-001
4.457056430470537E-001  4.513119298795082E-001  4.569887351192079E-001  4.627369457785208E-001
4.685574600270569E-001  4.744511873320100E-001  4.804190486002620E-001  4.864619763222782E-001
4.925809147178093E-001  4.987768198834285E-001  5.050506599419240E-001  5.114034151935688E-001
5.178360782692960E-001  5.243496542857986E-001  5.309451610025808E-001  5.376236289809861E-001
5.443861017452234E-001  5.512336359454206E-001  5.581673015227279E-001  5.651881818764980E-001
5.722973740335709E-001  5.794959888196843E-001  5.867851510330448E-001  5.941659996200779E-001
6.016396878533915E-001  6.092073835119779E-001  6.168702690636798E-001  6.246295418499556E-001
6.324864142729639E-001  6.404421139850058E-001  6.484978840803477E-001  6.566549832894562E-001
6.649146861756788E-001  6.732782833343958E-001  6.817470815946789E-001  6.903224042234866E-001
6.990055911324257E-001  7.077979990871175E-001  7.167010019191929E-001  7.257159907409574E-001
7.348443741627561E-001  7.440875785130699E-001  7.534470480613847E-001  7.629242452438589E-001
7.725206508918336E-001  7.822377644632161E-001  7.920771042767706E-001  8.020402077493622E-001
8.121286316361780E-001  8.223439522739752E-001  8.326877658273872E-001  8.431616885383258E-001
8.537673569785249E-001  8.645064283052548E-001  8.753805805202591E-001  8.863915127319457E-001
8.975409454208739E-001  9.088306207085857E-001  9.202623026298136E-001  9.318377774081150E-001
9.435588537349755E-001  9.554273630524173E-001  9.674451598391683E-001  9.796141219004267E-001
9.919361506612721E-001  1.004413171463769E+000  1.017047133867800E+000  1.029840011955697E+000
1.042793804640689E+000  1.055910535979235E+000  1.069192255487295E+000  1.082641038460564E+000
1.096258986298742E+000  1.110048226833886E+000  1.124010914662883E+000  1.138149231484114E+000
1.152465386438347E+000  1.166961616453920E+000  1.181640186596267E+000  1.196503390421834E+000
1.211553550336460E+000  1.226793017958250E+000  1.242224174485027E+000  1.257849431066391E+000
1.273671229180474E+000  1.289692041015421E+000  1.305914369855676E+000  1.322340750473123E+000
1.338973749523156E+000  1.355815965945714E+000  1.372870031371381E+000  1.390138610532575E+000
1.407624401679924E+000  1.425330137003869E+000  1.443258583061578E+000  1.461412541209222E+000
1.479794848039698E+000  1.498408375825846E+000  1.517256032969252E+000  1.536340764454690E+000
1.555665552310285E+000  1.575233416073455E+000  1.595047413262722E+000  1.615110639855462E+000
1.635426230771646E+000  1.655997360363690E+000  1.676827242912444E+000  1.697919133129433E+000
1.719276326665418E+000  1.740902160625338E+000  1.762800014089750E+000  1.784973308642808E+000
1.807425508906896E+000  1.830160123083989E+000  1.853180703503801E+000  1.876490847178863E+000
1.900094196366547E+000  1.923994439138184E+000  1.948195309955333E+000  1.972700590253297E+000
1.997514109031980E+000  2.022639743454172E+000  2.048081419451371E+000  2.073843112337214E+000
2.099928847428626E+000  2.126342700674786E+000  2.153088799294006E+000  2.180171322418608E+000
2.207594501747932E+000  2.235362622209540E+000  2.263480022628746E+000  2.291951096406577E+000
2.320780292206231E+000  2.349972114648207E+000  2.379531125014152E+000  2.409461941959572E+000
2.439769242235513E+000  2.470457761419304E+000  2.501532294654500E+000  2.532997697400144E+000
2.564858886189431E+000  2.597120839397929E+000  2.629788598021467E+000  2.662867266463794E+000
2.696362013334150E+000  2.730278072254882E+000  2.764620742679195E+000  2.799395390719218E+000
2.834607449984456E+000  2.870262422430807E+000  2.906365879220257E+000  2.942923461591380E+000
2.979940881740804E+000  3.017423923715737E+000  3.055378444317746E+000  3.093810374017897E+000
3.132725717883390E+000  3.172130556515886E+000  3.212031047001588E+000  3.252433423873311E+000
3.293344000084641E+000  3.334769167996342E+000  3.376715400375187E+000  3.419189251405320E+000
3.462197357712381E+000  3.505746439400478E+000  3.549843301102226E+000  3.594494833041987E+000
3.639708012112467E+000  3.685489902964883E+000  3.731847659112825E+000  3.778788524050003E+000
3.826319832382072E+000  3.874449010972659E+000  3.923183580103838E+000  3.972531154651187E+000
4.022499445273624E+000  4.073096259618228E+000  4.124329503540175E+000  4.176207182338065E+000
4.228737402004755E+000  4.281928370493937E+000  4.335788399002663E+000  4.390325903269963E+000
4.445549404891837E+000  4.501467532652766E+000  4.558089023873975E+000  4.615422725778672E+000
4.673477596874422E+000  4.732262708352947E+000  4.791787245507518E+000  4.852060509168160E+000
4.913091917154959E+000  4.974891005749575E+000  5.037467431185335E+000  5.100830971156025E+000
5.164991526343674E+000  5.229959121965576E+000  5.295743909340720E+000  5.362356167475974E+000
5.429806304672192E+000  5.498104860150539E+000  5.567262505699270E+000  5.637290047341200E+000
5.708198427022182E+000  5.779998724320807E+000  5.852702158179601E+000  5.926320088658030E+000
6.000864018707504E+000  6.076345595968754E+000  6.152776614591795E+000  6.230169017078783E+000
6.308534896150070E+000  6.387886496633697E+000  6.468236217378676E+000  6.549596613192351E+000
6.631980396802090E+000  6.715400440841704E+000  6.799869779862787E+000  6.885401612371417E+000
6.972009302890437E+000  7.059706384047692E+000  7.148506558690544E+000  7.238423702026942E+000
7.329471863793468E+000  7.421665270450638E+000  7.515018327405806E+000  7.609545621264060E+000
7.705261922107378E+000  7.802182185802502E+000  7.900321556337821E+000  7.999695368189640E+000
8.100319148718253E+000  8.202208620594080E+000  8.305379704254396E+000  8.409848520390931E+000
8.515631392468737E+000  8.622744849276812E+000  8.731205627510697E+000  8.841030674387655E+000
8.952237150294703E+000  9.064842431469947E+000  9.178864112717680E+000  9.294320010157568E+000
9.411228164008484E+000  9.529606841407320E+000  9.649474539263254E+000  9.770849987147963E+000
9.893752150222115E+000  1.001820023219873E+001  1.014421367834382E+001  1.027181217851470E+001
1.040101567023664E+001  1.053184434181810E+001  1.066431863550516E+001  1.079845925067575E+001
1.093428714707388E+001  1.107182354808473E+001  1.121108994405078E+001  1.135210809562971E+001
1.149490003719464E+001  1.163948808027692E+001  1.178589481705247E+001  1.193414312387178E+001
1.208425616483440E+001  1.223625739540839E+001  1.239017056609525E+001  1.254601972614108E+001
1.270382922729419E+001  1.286362372761021E+001  1.302542819530491E+001  1.318926791265555E+001
1.335516847995134E+001  1.352315581949341E+001  1.369325617964536E+001  1.386549613893453E+001
1.403990261020496E+001  1.421650284482265E+001  1.439532443693355E+001  1.457639532777523E+001
1.475974381004278E+001  1.494539853230957E+001  1.513338850350370E+001  1.532374309744061E+001
1.551649205741290E+001  1.571166550083771E+001  1.590929392396265E+001  1.610940820663092E+001
1.631203961710633E+001  1.651721981695901E+001  1.672498086601264E+001  1.693535522735380E+001
1.714837577240451E+001  1.736407578605829E+001  1.758248897188113E+001  1.780364945737768E+001
1.802759179932373E+001  1.825435098916586E+001  1.848396245848882E+001  1.871646208455183E+001
1.895188619589449E+001  1.919027157801316E+001  1.943165547910881E+001  1.967607561590708E+001
1.992357017955163E+001  2.017417784157156E+001  2.042793775992389E+001  2.068488958511219E+001
2.094507346638190E+001  2.120853005799382E+001  2.147530052557638E+001  2.174542655255789E+001
2.201895034667967E+001  2.229591464659102E+001  2.257636272852729E+001  2.286033841307185E+001
2.314788607200316E+001  2.343905063522799E+001  2.373387759780168E+001  2.403241302703698E+001
2.433470356970208E+001  2.464079645930926E+001  2.495073952349532E+001  2.526458119149461E+001
2.558237050170624E+001  2.590415710935652E+001  2.622999129425752E+001  2.655992396866361E+001
2.689400668522638E+001  2.723229164505000E+001  2.757483170584769E+001  2.792168039020082E+001
2.827289189392205E+001  2.862852109452335E+001  2.898862355979085E+001  2.935325555646737E+001
2.972247405904423E+001  3.009633675866369E+001  3.047490207213315E+001  3.085822915105307E+001
3.124637789105939E+001  3.163940894118240E+001  3.203738371332339E+001  3.244036439185014E+001
3.284841394331355E+001  3.326159612628622E+001  3.367997550132485E+001  3.410361744105801E+001
3.453258814040070E+001  3.496695462689743E+001  3.540678477119543E+001  3.585214729764955E+001
3.630311179506073E+001  3.675974872754914E+001  3.722212944556452E+001  3.769032619703478E+001
3.816441213865485E+001  3.864446134731773E+001  3.913054883168889E+001  3.962275054392672E+001
4.012114339155016E+001  4.062580524945558E+001  4.113681497208513E+001  4.165425240574754E+001
4.217819840109460E+001  4.270873482575404E+001  4.324594457712156E+001  4.378991159531385E+001
4.434072087628418E+001  4.489845848510332E+001  4.546321156940738E+001  4.603506837301475E+001
4.661411824971452E+001  4.720045167722795E+001  4.779416027134603E+001  4.839533680024449E+001
4.900407519897900E+001  4.962047058416297E+001  5.024461926882934E+001  5.087661877747995E+001
5.151656786132381E+001  5.216456651370724E+001  5.282071598573812E+001  5.348511880210635E+001
5.415787877710372E+001  5.483910103084509E+001  5.552889200569348E+001  5.622735948289223E+001
5.693461259940563E+001  5.765076186497205E+001  5.837591917937127E+001  5.911019784990894E+001
5.985371260912133E+001  6.060657963270224E+001  6.136891655765579E+001  6.214084250067751E+001
6.292247807676642E+001  6.371394541807167E+001  6.451536819297552E+001  6.532687162541707E+001
6.614858251445862E+001  6.698062925409842E+001  6.782314185333225E+001  6.867625195646795E+001
6.954009286369480E+001  7.041479955191201E+001  7.130050869581923E+001  7.219735868927212E+001
7.310548966690695E+001  7.402504352603650E+001  7.495616394882211E+001  7.589899642472423E+001
7.685368827323535E+001  7.782038866689928E+001  7.879924865461922E+001  7.979042118525975E+001
8.079406113154536E+001  8.181032531425950E+001  8.283937252674846E+001  8.388136355973273E+001
8.493646122643119E+001  8.600483038800084E+001  8.708663797929673E+001  8.818205303495610E+001
8.929124671580995E+001  9.041439233562761E+001  9.155166538819722E+001  9.270324357474698E+001
9.386930683171157E+001  9.505003735884722E+001  9.624561964770098E+001  9.745624051043794E+001
9.868208910903081E+001  9.992335698481733E+001  1.011802380884284E+002
</PP_R>