<UPF version="2.0.1">
<PP_INFO>
Generated in analytical, separable form
Author: Goedecker/Hartwigsen/Hutter/Teter
Generation date: Phys.Rev.B58, 3641 (1998); B54, 1703 (1996)
Pseudopotential type: NC
Element: He
Functional: SLA-PW-PBX-PBC

Suggested minimum cutoff for wavefunctions:   0. Ry
Suggested minimum cutoff for charge density:   0. Ry
The Pseudo was generated with a Scalar-Relativistic Calculation
Local Potential: unknown format, L component and cutoff radius: -3   0.0000

Valence configuration:
nl pn  l   occ       Rcut    Rcut US       E pseu

Generation configuration: not available.
Converted from CPMD format using cpmd2upf v.5.0.1 - PG 10Jul2012
Contains atomic orbitals generated by ld1.x - use with care
</PP_INFO>
<!--                               -->
<!-- END OF HUMAN READABLE SECTION -->
<!--                               -->
<PP_HEADER generated="Generated in analytical, separable form"
author="Goedecker/Hartwigsen/Hutter/Teter"
date="Phys.Rev.B58, 3641 (1998); B54, 1703 (1996)"
comment="Contains atomic orbitals generated by ld1.x - use with care"
element="He"
pseudo_type="NC"
relativistic="scalar"
is_ultrasoft="F"
is_paw="F"
is_coulomb="F"
has_so="F"
has_wfc="F"
has_gipaw="F"
paw_as_gipaw="F"
core_correction="F"
functional="SLA-PW-PBX-PBC"
z_valence="2.000000000000000E+000"
total_psenergy="0.000000000000000E+000"
wfc_cutoff="0.000000000000000E+000"
rho_cutoff="0.000000000000000E+000"
l_max="-1"
l_max_rho="0"
l_local="-3"
mesh_size="985"
number_of_wfc=" 1"
number_of_proj="0"/>
<PP_MESH dx="1.250000000000000E-002" mesh="985" xmin="-7.000000000000000E+000" rmax="1.001684049873959E+002"
zmesh="2.000000000000000E+000">
<PP_R type="real" size="985" columns="4">
4.559409827772581E-004  4.616760143345111E-004  4.674831837082911E-004  4.733633982806270E-004
4.793175768470099E-004  4.853466497599544E-004  4.914515590743693E-004  4.976332586947557E-004
5.038927145242552E-004  5.102309046155773E-004  5.166488193238185E-004  5.231474614612093E-004
5.297278464538051E-004  5.363910025001484E-004  5.431379707319289E-004  5.499698053766591E-004
5.568875739224016E-004  5.638923572845662E-004  5.709852499748038E-004  5.781673602720289E-004
5.854398103955872E-004  5.928037366806064E-004  6.002602897555504E-004  6.078106347220073E-004
6.154559513367405E-004  6.231974341960248E-004  6.310362929223073E-004  6.389737523532122E-004
6.470110527329240E-004  6.551494499059800E-004  6.633902155134958E-004  6.717346371918634E-004
6.801840187739469E-004  6.887396804928085E-004  6.974029591879994E-004  7.061752085144408E-004
7.150577991539372E-004  7.240521190293478E-004  7.331595735214515E-004  7.423815856885434E-004
7.517195964887862E-004  7.611750650053658E-004  7.707494686744751E-004  7.804443035161661E-004
7.902610843681085E-004  8.002013451222822E-004  8.102666389646533E-004  8.204585386178630E-004
8.307786365869670E-004  8.412285454082706E-004  8.518098979012870E-004  8.625243474238712E-004
8.733735681305598E-004  8.843592552341603E-004  8.954831252706349E-004  9.067469163673076E-004
9.181523885144536E-004  9.297013238403005E-004  9.413955268894887E-004  9.532368249050383E-004
9.652270681138547E-004  9.773681300158335E-004  9.896619076765983E-004  1.002110322023920E-003
1.014715318147867E-003  1.027478865604729E-003  1.040402958724765E-003  1.053489616923817E-003
1.066740885018854E-003  1.080158833547477E-003  1.093745559091443E-003  1.107503184604258E-003
1.121433859742902E-003  1.135539761203703E-003  1.149823093062468E-003  1.164286087118857E-003
1.178931003245116E-003  1.193760129739187E-003  1.208775783682252E-003  1.223980311300792E-003
1.239376088333179E-003  1.254965520400899E-003  1.270751043384429E-003  1.286735123803850E-003
1.302920259204249E-003  1.319308978545961E-003  1.335903842599725E-003  1.352707444346813E-003
1.369722409384184E-003  1.386951396334744E-003  1.404397097262756E-003  1.422062238094484E-003
1.439949579044122E-003  1.458061915045084E-003  1.476402076186723E-003  1.494972928156530E-003
1.513777372687908E-003  1.532818348013572E-003  1.552098829324654E-003  1.571621829235590E-003
1.591390398254833E-003  1.611407625261513E-003  1.631676637988074E-003  1.652200603508991E-003
1.672982728735636E-003  1.694026260917356E-003  1.715334488148867E-003  1.736910739884027E-003
1.758758387456064E-003  1.780880844604365E-003  1.803281568007865E-003  1.825964057825172E-003
1.848931858241466E-003  1.872188558022290E-003  1.895737791074304E-003  1.919583237013082E-003
1.943728621738065E-003  1.968177718014742E-003  1.992934346064145E-003  2.018002374159779E-003
2.043385719232033E-003  2.069088347480218E-003  2.095114274992290E-003  2.121467568372370E-003
2.148152345376170E-003  2.175172775554385E-003  2.202533080904203E-003  2.230237536529001E-003
2.258290471306333E-003  2.286696268564337E-003  2.315459366766623E-003  2.344584260205806E-003
2.374075499705739E-003  2.403937693332595E-003  2.434175507114882E-003  2.464793665772526E-003
2.495796953455108E-003  2.527190214489407E-003  2.558978354136328E-003  2.591166339357362E-003
2.623759199590692E-003  2.656762027537038E-003  2.690179979955410E-003  2.724018278468865E-003
2.758282210380386E-003  2.792977129499050E-003  2.828108456976554E-003  2.863681682154293E-003
2.899702363421073E-003  2.936176129081626E-003  2.973108678236047E-003  3.010505781670279E-003
3.048373282757819E-003  3.086717098372754E-003  3.125543219814281E-003  3.164857713742873E-003
3.204666723128192E-003  3.244976468208944E-003  3.285793247464809E-003  3.327123438600587E-003
3.368973499542734E-003  3.411349969448414E-003  3.454259469727266E-003  3.497708705076008E-003
3.541704464526059E-003  3.586253622504349E-003  3.631363139907446E-003  3.677040065189218E-003
3.723291535462172E-003  3.770124777612635E-003  3.817547109429981E-003  3.865565940750035E-003
3.914188774612887E-003  3.963423208435251E-003  4.013276935197577E-003  4.063757744646106E-003
4.114873524510015E-003  4.166632261733904E-003  4.219042043725769E-003  4.272111059620670E-003
4.325847601560317E-003  4.380260065988714E-003  4.435356954964129E-003  4.491146877487562E-003
4.547638550847908E-003  4.604840801984070E-003  4.662762568864163E-003  4.721412901882106E-003
4.780800965271757E-003  4.840936038538842E-003  4.901827517910914E-003  4.963484917805506E-003
5.025917872316793E-003  5.089136136720939E-003  5.153149589000370E-003  5.217968231387252E-003
5.283602191926327E-003  5.350061726057464E-003  5.417357218218081E-003  5.485499183465739E-003
5.554498269121153E-003  5.624365256431832E-003  5.695111062256689E-003  5.766746740771816E-003
5.839283485197721E-003  5.912732629548309E-003  5.987105650401811E-003  6.062414168694050E-003
6.138669951534224E-003  6.215884914043541E-003  6.294071121216999E-003  6.373240789808534E-003
6.453406290239936E-003  6.534580148533746E-003  6.616775048270464E-003  6.700003832570414E-003
6.784279506100467E-003  6.869615237106072E-003  6.956024359468816E-003  7.043520374789862E-003
7.132116954499628E-003  7.221827941993940E-003  7.312667354797111E-003  7.404649386752207E-003
7.497788410238852E-003  7.592098978418973E-003  7.687595827510716E-003  7.784293879091045E-003
7.882208242427250E-003  7.981354216837804E-003  8.081747294082937E-003  8.183403160785214E-003
8.286337700880627E-003  8.390566998100486E-003  8.496107338484533E-003  8.602975212925692E-003
8.711187319746757E-003  8.820760567309582E-003  8.931712076657026E-003  9.044059184188149E-003
9.157819444367089E-003  9.273010632465942E-003  9.389650747342205E-003  9.507758014251128E-003
9.627350887693465E-003  9.748448054298997E-003  9.871068435746391E-003  9.995231191719715E-003
1.012095572290220E-002  1.024826167400763E-002  1.037716893684987E-002  1.050769765345102E-002
1.063986821918859E-002  1.077370128598239E-002  1.090921776552139E-002  1.104643883253122E-002
1.118538592808280E-002  1.132608076294249E-002  1.146854532096447E-002  1.161280186252579E-002
1.175887292800455E-002  1.190678134130194E-002  1.205655021340844E-002  1.220820294601502E-002
1.236176323516970E-002  1.251725507498007E-002  1.267470276136247E-002  1.283413089583822E-002
1.299556438937767E-002  1.315902846629266E-002  1.332454866817774E-002  1.349215085790124E-002
1.366186122364628E-002  1.383370628300279E-002  1.400771288711091E-002  1.418390822485655E-002
1.436231982711972E-002  1.454297557107624E-002  1.472590368455364E-002  1.491113275044186E-002
1.509869171115925E-002  1.528860987317505E-002  1.548091691158845E-002  1.567564287476544E-002
1.587281818903398E-002  1.607247366343803E-002  1.627464049455172E-002  1.647935027135368E-002
1.668663498016304E-002  1.689652700963728E-002  1.710905915583302E-002  1.732426462733051E-002
1.754217705042252E-002  1.776283047436848E-002  1.798625937671483E-002  1.821249866868212E-002
1.844158370062001E-002  1.867355026753081E-002  1.890843461466254E-002  1.914627344317233E-002
1.938710391586100E-002  1.963096366297991E-002  1.987789078811066E-002  2.012792387411893E-002
2.038110198918311E-002  2.063746469289877E-002  2.089705204245996E-002  2.115990459891816E-002
2.142606343352009E-002  2.169557013412519E-002  2.196846681170371E-002  2.224479610691676E-002
2.252460119677891E-002  2.280792580140470E-002  2.309481419084006E-002  2.338531119197949E-002
2.367946219557046E-002  2.397731316330574E-002  2.427891063500499E-002  2.458430173588679E-002
2.489353418393197E-002  2.520665629733969E-002  2.552371700207721E-002  2.584476583952470E-002
2.616985297421620E-002  2.649902920167791E-002  2.683234595636507E-002  2.716985531969875E-002
2.751161002820362E-002  2.785766348174821E-002  2.820806975188869E-002  2.856288359031765E-002
2.892216043741924E-002  2.928595643093176E-002  2.965432841471937E-002  3.002733394765399E-002
3.040503131260899E-002  3.078747952556612E-002  3.117473834483672E-002  3.156686828039920E-002
3.196393060335380E-002  3.236598735549628E-002  3.277310135901218E-002  3.318533622629280E-002
3.360275636987489E-002  3.402542701250511E-002  3.445341419733129E-002  3.488678479822183E-002
3.532560653021480E-002  3.576994796009863E-002  3.621987851712575E-002  3.667546850386107E-002
3.713678910716695E-002  3.760391240932620E-002  3.807691139930518E-002  3.855585998415837E-002
3.904083300057658E-002  3.953190622658034E-002  4.002915639336027E-002  4.053266119726664E-002
4.104249931194941E-002  4.155875040065128E-002  4.208149512865520E-002  4.261081517588842E-002
4.314679324968527E-002  4.368951309771021E-002  4.423905952104366E-002  4.479551838743236E-002
4.535897664470626E-002  4.592952233436447E-002  4.650724460533177E-002  4.709223372788834E-002
4.768458110777483E-002  4.828437930047441E-002  4.889172202567504E-002  4.950670418191317E-002
5.012942186140187E-002  5.075997236504554E-002  5.139845421764320E-002  5.204496718328334E-002
5.269961228093219E-002  5.336249180021811E-002  5.403370931741466E-002  5.471336971162447E-002
5.540157918116696E-002  5.609844526017189E-002  5.680407683538188E-002  5.751858416316621E-002
5.824207888674848E-002  5.897467405365126E-002  5.971648413335984E-002  6.046762503520835E-002
6.122821412649097E-002  6.199837025080061E-002  6.277821374659863E-002  6.356786646601782E-002
6.436745179390212E-002  6.517709466708585E-002  6.599692159391511E-002  6.682706067401523E-002
6.766764161830637E-002  6.851879576927124E-002  6.938065612147765E-002  7.025335734235907E-002
7.113703579325681E-002  7.203182955072665E-002  7.293787842811371E-002  7.385532399739843E-002
7.478430961131755E-002  7.572498042576330E-002  7.667748342246425E-002  7.764196743195151E-002
7.861858315681383E-002  7.960748319524515E-002  8.060882206488840E-002  8.162275622697922E-002
8.264944411079328E-002  8.368904613840128E-002  8.474172474973507E-002  8.580764442796938E-002
8.688697172522258E-002  8.797987528858078E-002  8.908652588644925E-002  9.020709643523542E-002
9.134176202636735E-002  9.249069995365217E-002  9.365408974097855E-002  9.483211317036766E-002
9.602495431037708E-002  9.723279954486179E-002  9.845583760209704E-002  9.969425958426761E-002
1.009482589973277E-001  1.022180317812370E-001  1.035037763405763E-001  1.048056935755489E-001
1.061239869133716E-001  1.074588623400603E-001  1.088105284326165E-001  1.101791963916170E-001
1.115650800742149E-001  1.129683960275555E-001  1.143893635226113E-001  1.158282045884444E-001
1.172851440468989E-001  1.187604095477291E-001  1.202542316041711E-001  1.217668436289604E-001
1.232984819708033E-001  1.248493859513068E-001  1.264197979023733E-001  1.280099632040651E-001
1.296201303229458E-001  1.312505508509037E-001  1.329014795444633E-001  1.345731743645920E-001
1.362658965170064E-001  1.379799104929866E-001  1.397154841107037E-001  1.414728885570665E-001
1.432523984300951E-001  1.450542917818277E-001  1.468788501617665E-001  1.487263586608703E-001
1.505971059561011E-001  1.524913843555297E-001  1.544094898440100E-001  1.563517221294269E-001
1.583183846895267E-001  1.603097848193354E-001  1.623262336791749E-001  1.643680463432821E-001
1.664355418490398E-001  1.685290432468272E-001  1.706488776504969E-001  1.727953762884873E-001
1.749688745555777E-001  1.771697120652944E-001  1.793982327029759E-001  1.816547846795057E-001
1.839397205857212E-001  1.862533974475065E-001  1.885961767815785E-001  1.909684246519745E-001
1.933705117272507E-001  1.958028133383996E-001  1.982657095374965E-001  2.007595851570834E-001
2.032848298702996E-001  2.058418382517693E-001  2.084310098392543E-001  2.110527491960828E-001
2.137074659743634E-001  2.163955749789937E-001  2.191174962324747E-001  2.218736550405400E-001
2.246644820586109E-001  2.274904133590868E-001  2.303518904994830E-001  2.332493605914243E-001
2.361832763705074E-001  2.391540962670421E-001  2.421622844776813E-001  2.452083110379532E-001
2.482926518957048E-001  2.514157889854706E-001  2.545782103037747E-001  2.577804099853822E-001
2.610228883805081E-001  2.643061521329987E-001  2.676307142594952E-001  2.709970942295937E-001
2.744058180470133E-001  2.778574183317858E-001  2.813524344034780E-001  2.848914123654616E-001
2.884749051902434E-001  2.921034728058680E-001  2.957776821834076E-001  2.994981074255528E-001
3.032653298563168E-001  3.070799381118690E-001  3.109425282325102E-001  3.148537037558051E-001
3.188140758108868E-001  3.228242632139461E-001  3.268848925649238E-001  3.309965983454171E-001
3.351600230178198E-001  3.393758171257073E-001  3.436446393954862E-001  3.479671568393211E-001
3.523440448593568E-001  3.567759873532514E-001  3.612636768210362E-001  3.658078144733211E-001
3.704091103408591E-001  3.750682833854910E-001  3.797860616124844E-001  3.845631821842854E-001
3.894003915357026E-001  3.942984454905384E-001  3.992581093796887E-001  4.042801581607264E-001
4.093653765389911E-001  4.145145590902004E-001  4.197285103846038E-001  4.250080451126992E-001
4.303539882125291E-001  4.357671749985791E-001  4.412484512922979E-001  4.467986735542580E-001
4.524187090179800E-001  4.581094358254390E-001  4.638717431642766E-001  4.697065314067381E-001
4.756147122503572E-001  4.815972088604111E-001  4.876549560141665E-001  4.937889002469409E-001
5.000000000000002E-001  5.062892257703174E-001  5.126575602622147E-001  5.191059985409128E-001
5.256355481880123E-001  5.322472294589299E-001  5.389420754423160E-001  5.457211322214761E-001
5.525854590378241E-001  5.595361284563904E-001  5.665742265334134E-001  5.737008529860363E-001
5.809171213641418E-001  5.882241592243455E-001  5.956231083061793E-001  6.031151247104906E-001
6.107013790800851E-001  6.183830567826426E-001  6.261613580959324E-001  6.340374983953599E-001
6.420127083438710E-001  6.500882340842458E-001  6.582653374338111E-001  6.665452960816016E-001
6.749294037880018E-001  6.834189705868985E-001  6.920153229903759E-001  7.007198041959869E-001
7.095337742966289E-001  7.184586104930625E-001  7.274957073091010E-001  7.366464768095080E-001
7.459123488206355E-001  7.552947711538366E-001  7.647952098316897E-001  7.744151493170669E-001
7.841560927450847E-001  7.940195621579720E-001  8.040070987428918E-001  8.141202630727553E-001
8.243606353500644E-001  8.347298156538218E-001  8.452294241895461E-001  8.558611015424326E-001
8.666265089336980E-001  8.775273284801497E-001  8.885652634570196E-001  8.997420385641047E-001
9.110594001952549E-001  9.225191167112503E-001  9.341229787161116E-001  9.458727993368852E-001
9.577704145069484E-001  9.698176832528774E-001  9.820164879849239E-001  9.943687347911464E-001
1.006876353735239E+000  1.019541299158108E+000  1.032365549983244E+000  1.045351110025928E+000
1.058500008306338E+000  1.071814299366580E+000  1.085296063591722E+000  1.098947407534851E+000
1.112770464246234E+000  1.126767393606605E+000  1.140940382664652E+000  1.155291645978753E+000
1.169823425962996E+000  1.184537993237570E+000  1.199437646983549E+000  1.214524715302145E+000
1.229801555578475E+000  1.245270554849916E+000  1.260934130179075E+000  1.276794729031464E+000
1.292854829657924E+000  1.309116941481851E+000  1.325583605491304E+000  1.342257394636036E+000
1.359140914229523E+000  1.376236802356053E+000  1.393547730282926E+000  1.411076402877851E+000
1.428825559031583E+000  1.446797972085881E+000  1.464996450266851E+000  1.483423837123734E+000
1.502083011973217E+000  1.520976890349333E+000  1.540108424459016E+000  1.559480603643397E+000
1.579096454844884E+000  1.598959043080139E+000  1.619071471918981E+000  1.639436883969338E+000
1.660058461368275E+000  1.680939426279215E+000  1.702083041395410E+000  1.723492610449738E+000
1.745171478730921E+000  1.767123033606236E+000  1.789350705050790E+000  1.811857966183472E+000
1.834648333809623E+000  1.857725368970553E+000  1.881092677499956E+000  1.904753910587331E+000
1.928712765348488E+000  1.952972985403227E+000  1.977538361460289E+000  2.002412731909663E+000
2.027599983422338E+000  2.053104051557607E+000  2.078928921378005E+000  2.105078628071981E+000
2.131557257584410E+000  2.158368947255023E+000  2.185517886464880E+000  2.213008317290968E+000
2.240844535169034E+000  2.269030889564752E+000  2.297571784653345E+000  2.326471680007737E+000
2.355735091295372E+000  2.385366590983803E+000  2.415370809055140E+000  2.445752433729504E+000
2.476516212197559E+000  2.507666951362281E+000  2.539209518590042E+000  2.571148842471144E+000
2.603489913589926E+000  2.636237785304547E+000  2.669397574536589E+000  2.702974462570585E+000
2.736973695863601E+000  2.771400586865013E+000  2.806260514846580E+000  2.841558926742973E+000
2.877301338002867E+000  2.913493333450738E+000  2.950140568159510E+000  2.987248768334164E+000
3.024823732206475E+000  3.062871330940995E+000  3.101397509552434E+000  3.140408287834584E+000
3.179909761300918E+000  3.219908102137031E+000  3.260409560165058E+000  3.301420463820215E+000
3.342947221139636E+000  3.384996320763640E+000  3.427574332949591E+000  3.470687910598519E+000
3.514343790294648E+000  3.558548793357999E+000  3.603309826910236E+000  3.648633884953917E+000
3.694528049465327E+000  3.740999491501042E+000  3.788055472318424E+000  3.835703344510217E+000
3.883950553153389E+000  3.932804636972448E+000  3.982273229517388E+000  4.032364060356437E+000
4.083084956283828E+000  4.134443842542737E+000  4.186448744063634E+000  4.239107786718189E+000
4.292429198588948E+000  4.346421311255004E+000  4.401092561093806E+000  4.456451490599370E+000
4.512506749717064E+000  4.569267097195164E+000  4.626741401953449E+000  4.684938644468968E+000
4.743867918179265E+000  4.803538430903254E+000  4.863959506279944E+000  4.925140585225295E+000
4.987091227407364E+000  5.049821112740029E+000  5.113340042895502E+000  5.177657942835848E+000
5.242784862363790E+000  5.308730977693005E+000  5.375506593038180E+000  5.443122142225072E+000
5.511588190320802E+000  5.580915435284687E+000  5.651114709639795E+000  5.722196982165563E+000
5.794173359611698E+000  5.867055088433607E+000  5.940853556549703E+000  6.015580295120770E+000
6.091246980351739E+000  6.167865435316131E+000  6.245447631803406E+000  6.324005692189616E+000
6.403551891331521E+000  6.484098658484570E+000  6.565658579245012E+000  6.648244397516394E+000
6.731869017500848E+000  6.816545505715382E+000  6.902287093033551E+000  6.989107176752820E+000
7.077019322687904E+000  7.166037267290468E+000  7.256174919795463E+000  7.347446364394474E+000
7.439865862436422E+000  7.533447854655896E+000  7.628206963429583E+000  7.724157995061013E+000
7.821315942094089E+000  7.919695985655713E+000  8.019313497827838E+000  8.120184044049422E+000
8.222323385548531E+000  8.325747481805076E+000  8.430472493044521E+000  8.536514782762930E+000
8.643890920283825E+000  8.752617683347145E+000  8.862712060730825E+000  8.974191254905325E+000
9.087072684721534E+000  9.201373988132527E+000  9.317113024949508E+000  9.434307879632446E+000
9.552976864115829E+000  9.673138520669909E+000  9.794811624798001E+000  9.918015188170166E+000
1.004276846159384E+001  1.016909093802181E+001  1.029700235559802E+001  1.042652270074171E+001
1.055767221127031E+001  1.069047137956168E+001  1.082494095575603E+001  1.096110195099824E+001
1.109897564072082E+001  1.123858356796831E+001  1.137994754676337E+001  1.152308966551530E+001
1.166803229047136E+001  1.181479806921161E+001  1.196340993418758E+001  1.211389110630549E+001
1.226626509855468E+001  1.242055571968142E+001  1.257678707790919E+001  1.273498358470555E+001
1.289516995859654E+001  1.305737122902899E+001  1.322161274028140E+001  1.338792015542407E+001
1.355631946032895E+001  1.372683696773006E+001  1.389949932133484E+001  1.407433349998733E+001
1.425136682188365E+001  1.443062694884052E+001  1.461214189061748E+001  1.479594000929348E+001
1.498205002369851E+001  1.517050101390097E+001  1.536132242575147E+001  1.555454407548384E+001
1.575019615437398E+001  1.594830923345726E+001  1.614891426830535E+001  1.635204260386309E+001
1.655772597934616E+001  1.676599653320048E+001  1.697688680812378E+001  1.719042975615060E+001
1.740665874380102E+001  1.762560755729428E+001  1.784731040782795E+001  1.807180193692347E+001
1.829911722183900E+001  1.852929178105030E+001  1.876236157980051E+001  1.899836303571989E+001
1.923733302451608E+001  1.947930888573599E+001  1.972432842860028E+001  1.997242993791098E+001
2.022365218003371E+001  2.047803440895491E+001  2.073561637241539E+001  2.099643831812100E+001
2.126054100003140E+001  2.152796568472797E+001  2.179875415786177E+001  2.207294873068263E+001
2.235059224665043E+001  2.263172808812939E+001  2.291640018316675E+001  2.320465301235650E+001
2.349653161578965E+001  2.379208160009185E+001  2.409134914554942E+001  2.439438101332522E+001
2.470122455276511E+001  2.501192770879639E+001  2.532653902941933E+001  2.564510767329286E+001
2.596768341741573E+001  2.629431666490424E+001  2.662505845286782E+001  2.695996046038378E+001
2.729907501657214E+001  2.764245510877222E+001  2.799015439082208E+001  2.834222719144191E+001
2.869872852272312E+001  2.905971408872402E+001  2.942524029417370E+001  2.979536425328549E+001
3.017014379868100E+001  3.054963749042669E+001  3.093390462518397E+001  3.132300524547443E+001
3.171700014906167E+001  3.211595089845095E+001  3.251991983050851E+001  3.292897006620188E+001
3.334316552046261E+001  3.376257091217308E+001  3.418725177427908E+001  3.461727446402932E+001
3.505270617334396E+001  3.549361493931347E+001  3.594006965482954E+001  3.639214007934984E+001
3.684989684979792E+001  3.731341149160049E+001  3.778275642986334E+001  3.825800500068794E+001
3.873923146263045E+001  3.922651100830458E+001  3.971991977613070E+001  4.021953486223266E+001
4.072543433248407E+001  4.123769723470652E+001  4.175640361102064E+001  4.228163451035304E+001
4.281347200110033E+001  4.335199918395245E+001  4.389730020487742E+001  4.444946026826916E+001
4.500856565026095E+001  4.557470371220622E+001  4.614796291432894E+001  4.672843282954583E+001
4.731620415746207E+001  4.791136873854348E+001  4.851401956846672E+001  4.912425081265003E+001
4.974215782096693E+001  5.036783714264456E+001  5.100138654134989E+001  5.164290501046543E+001
5.229249278855711E+001  5.295025137503696E+001  5.361628354602228E+001  5.429069337039485E+001
5.497358622606180E+001  5.566506881642118E+001  5.636524918703461E+001  5.707423674250952E+001
5.779214226359388E+001  5.851907792448596E+001  5.925515731036167E+001  6.000049543512273E+001
6.075520875936748E+001  6.151941520858832E+001  6.229323419159773E+001  6.307678661918608E+001
6.387019492301446E+001  6.467358307474449E+001  6.548707660540936E+001  6.631080262502833E+001
6.714488984246776E+001  6.798946858555249E+001  6.884467082142936E+001  6.971063017718765E+001
7.058748196073850E+001  7.147536318195701E+001  7.237441257409050E+001  7.328477061543559E+001
7.420657955128837E+001  7.513998341617049E+001  7.608512805633481E+001  7.704216115255439E+001
7.801123224319755E+001  7.899249274759380E+001  7.998609598969334E+001  8.099219722202417E+001
8.201095364995092E+001  8.304252445623806E+001  8.408707082592279E+001  8.514475597150057E+001
8.621574515842717E+001  8.730020573094215E+001  8.839830713821623E+001  8.951022096082842E+001
9.063612093757568E+001  9.177618299261999E+001  9.293058526297708E+001  9.409950812635024E+001
9.528313422931508E+001  9.648164851585830E+001  9.769523825627547E+001  9.892409307643278E+001
1.001684049873959E+002
</PP_R>
<PP_RAB type="real" size="985" columns="4">
5.699262284715727E-006  5.770950179181390E-006  5.843539796353639E-006  5.917042478507837E-006
5.991469710587625E-006  6.066833121999431E-006  6.143144488429617E-006  6.220415733684446E-006
6.298658931553191E-006  6.377886307694717E-006  6.458110241547732E-006  6.539343268265116E-006
6.621598080672564E-006  6.704887531251856E-006  6.789224634149112E-006  6.874622567208239E-006
6.961094674030021E-006  7.048654466057077E-006  7.137315624685047E-006  7.227092003400362E-006
7.317997629944841E-006  7.410046708507581E-006  7.503253621944381E-006  7.597632934025092E-006
7.693199391709257E-006  7.789967927450309E-006  7.887953661528842E-006  7.987171904415153E-006
8.087638159161551E-006  8.189368123824750E-006  8.292377693918697E-006  8.396682964898293E-006
8.502300234674337E-006  8.609246006160108E-006  8.717536989849993E-006  8.827190106430510E-006
8.938222489424216E-006  9.050651487866848E-006  9.164494669018145E-006  9.279769821106794E-006
9.396494956109828E-006  9.514688312567073E-006  9.634368358430939E-006  9.755553793952078E-006
9.878263554601357E-006  1.000251681402853E-005  1.012833298705817E-005  1.025573173272329E-005
1.038473295733709E-005  1.051535681760338E-005  1.064762372376609E-005  1.078155434279839E-005
1.091716960163200E-005  1.105449069042700E-005  1.119353906588294E-005  1.133433645459135E-005
1.147690485643067E-005  1.162126654800376E-005  1.176744408611861E-005  1.191546031131298E-005
1.206533835142318E-005  1.221710162519792E-005  1.237077384595748E-005  1.252637902529900E-005
1.268394147684834E-005  1.284348582005912E-005  1.300503698405956E-005  1.316862021154771E-005
1.333426106273568E-005  1.350198541934347E-005  1.367181948864303E-005  1.384378980755323E-005
1.401792324678627E-005  1.419424701504629E-005  1.437278866328085E-005  1.455357608898571E-005
1.473663754056396E-005  1.492200162173984E-005  1.510969729602815E-005  1.529975389125990E-005
1.549220110416474E-005  1.568706900501124E-005  1.588438804230537E-005  1.608418904754812E-005
1.628650324005311E-005  1.649136223182451E-005  1.669879803249657E-005  1.690884305433517E-005
1.712153011730230E-005  1.733689245418431E-005  1.755496371578446E-005  1.777577797618105E-005
1.799936973805152E-005  1.822577393806355E-005  1.845502595233404E-005  1.868716160195663E-005
1.892221715859885E-005  1.916022935016965E-005  1.940123536655818E-005  1.964527286544488E-005
1.989237997818542E-005  2.014259531576891E-005  2.039595797485093E-005  2.065250754386239E-005
2.091228410919545E-005  2.117532826146695E-005  2.144168110186084E-005  2.171138424855034E-005
2.198447984320080E-005  2.226101055755456E-005  2.254101960009832E-005  2.282455072281465E-005
2.311164822801833E-005  2.340235697527863E-005  2.369672238842880E-005  2.399479046266352E-005
2.429660777172582E-005  2.460222147518427E-005  2.491167932580182E-005  2.522502967699724E-005
2.554232149040042E-005  2.586360434350273E-005  2.618892843740362E-005  2.651834460465463E-005
2.685190431720213E-005  2.718965969442981E-005  2.753166351130254E-005  2.787796920661251E-005
2.822863089132916E-005  2.858370335705421E-005  2.894324208458279E-005  2.930730325257257E-005
2.967594374632174E-005  3.004922116665744E-005  3.042719383893602E-005  3.080992082215658E-005
3.119746191818886E-005  3.158987768111759E-005  3.198722942670410E-005  3.238957924196703E-005
3.279698999488365E-005  3.320952534421298E-005  3.362724974944263E-005  3.405022848086081E-005
3.447852762975483E-005  3.491221411873812E-005  3.535135571220692E-005  3.579602102692866E-005
3.624627954276342E-005  3.670220161352033E-005  3.716385847795059E-005  3.763132227087849E-005
3.810466603447274E-005  3.858396372965942E-005  3.906929024767851E-005  3.956072142178592E-005
4.005833403910240E-005  4.056220585261179E-005  4.107241559331012E-005  4.158904298250734E-005
4.211216874428417E-005  4.264187461810517E-005  4.317824337159083E-005  4.372135881345011E-005
4.427130580657574E-005  4.482817028130437E-005  4.539203924884308E-005  4.596300081486523E-005
4.654114419327715E-005  4.712655972015793E-005  4.771933886787476E-005  4.831957425937544E-005
4.892735968266108E-005  4.954279010544065E-005  5.016596168996972E-005  5.079697180807632E-005
5.143591905637519E-005  5.208290327167381E-005  5.273802554657211E-005  5.340138824525838E-005
5.407309501950397E-005  5.475325082485893E-005  5.544196193705162E-005  5.613933596859453E-005
5.684548188559885E-005  5.756051002480088E-005  5.828453211080204E-005  5.901766127352633E-005
5.976001206589696E-005  6.051170048173553E-005  6.127284397388643E-005  6.204356147256883E-005
6.282397340395991E-005  6.361420170901173E-005  6.441436986250463E-005  6.522460289234065E-005
6.604502739907909E-005  6.687577157571830E-005  6.771696522772602E-005  6.856873979332173E-005
6.943122836401442E-005  7.030456570539791E-005  7.118888827820861E-005  7.208433425964771E-005