<UPF version="2.0.1">
<PP_INFO>
Generated in analytical, separable form
Author: Goedecker/Hartwigsen/Hutter/Teter
Generation date: Phys.Rev.B58, 3641 (1998); B54, 1703 (1996)
Pseudopotential type: NC
Element: Mo
Functional: SLA-PW-PBX-PBC

Suggested minimum cutoff for wavefunctions:   0. Ry
Suggested minimum cutoff for charge density:   0. Ry
The Pseudo was generated with a Non-Relativistic Calculation
Local Potential: unknown format, L component and cutoff radius: -3   0.0000

Valence configuration:
nl pn  l   occ       Rcut    Rcut US       E pseu

Generation configuration: not available.
Converted from CPMD format using cpmd2upf v.5.0.1 - PG 10Jul2012
Atomic orbitals could not be generated by ld1.x - use with care
</PP_INFO>
<!--                               -->
<!-- END OF HUMAN READABLE SECTION -->
<!--                               -->
<PP_HEADER generated="Generated in analytical, separable form"
author="Goedecker/Hartwigsen/Hutter/Teter"
date="Phys.Rev.B58, 3641 (1998); B54, 1703 (1996)"
comment="Atomic orbitals could not be generated by ld1.x - use with care"
element="Mo"
pseudo_type="NC"
relativistic="no"
is_ultrasoft="F"
is_paw="F"
is_coulomb="F"
has_so="F"
has_wfc="F"
has_gipaw="F"
paw_as_gipaw="F"
core_correction="F"
functional="SLA-PW-PBX-PBC"
z_valence="1.400000000000000E+001"
total_psenergy="0.000000000000000E+000"
wfc_cutoff="0.000000000000000E+000"
rho_cutoff="0.000000000000000E+000"
l_max="2"
l_max_rho="0"
l_local="-3"
mesh_size="1229"
number_of_wfc="0"
number_of_proj="6"/>
<PP_MESH dx="1.250000000000000E-002" mesh="1229" xmin="-7.000000000000000E+000" rmax="1.007185891221620E+002"
zmesh="4.200000000000000E+001">
<PP_R type="real" size="1229" columns="4">
2.171147537034563E-005  2.198457211116720E-005  2.226110398610910E-005  2.254111420383938E-005
2.282464651652428E-005  2.311174522666450E-005  2.340245519401759E-005  2.369682184260741E-005
2.399489116782168E-005  2.429670974359892E-005  2.460232472970564E-005  2.491178387910520E-005
2.522513554541929E-005  2.554242869048326E-005  2.586371289199661E-005  2.618903835126948E-005
2.651845590106674E-005  2.685201701355077E-005  2.718977380832399E-005  2.753177906057281E-005
2.787808620931368E-005  2.822874936574316E-005  2.858382332169288E-005  2.894336355819083E-005
2.930742625413050E-005  2.967606829504880E-005  3.004934728201463E-005  3.042732154062915E-005
3.081005013013924E-005  3.119759285266572E-005  3.159001026254742E-005  3.198736367580302E-005
3.238971517971176E-005  3.279712764251469E-005  3.320966472323807E-005  3.362739088164004E-005
3.405037138828272E-005  3.447867233473085E-005  3.491236064387865E-005  3.535150408040683E-005
3.579617126137077E-005  3.624643166692218E-005  3.670235565116548E-005  3.716401445315077E-005
3.763148020800517E-005  3.810482595820391E-005  3.858412566498349E-005  3.906945421989824E-005
3.956088745652224E-005  4.005850216229860E-005  4.056237609053748E-005  4.107258797256529E-005
4.158921753002666E-005  4.211234548734097E-005  4.264205358431595E-005  4.317842458891941E-005
4.372154231021207E-005  4.427149161144288E-005  4.482835842330898E-005  4.539222975738277E-005
4.596319371970736E-005  4.654133952456350E-005  4.712675750840944E-005  4.771953914399617E-005
4.831977705466033E-005  4.892756502879664E-005  4.954299803451261E-005  5.016617223446748E-005
5.079718500089781E-005  5.143613493083225E-005  5.208312186149726E-005  5.273824688591707E-005
5.340161236870961E-005  5.407332196208112E-005  5.475348062202229E-005  5.544219462470747E-005
5.613957158310078E-005  5.684572046377080E-005  5.756075160391675E-005  5.828477672860912E-005
5.901790896824663E-005  5.976026287623330E-005  6.051195444687758E-005  6.127310113351666E-005
6.204382186686901E-005  6.282423707361717E-005  6.361446869522501E-005  6.441464020699111E-005
6.522487663734210E-005  6.604530458736878E-005  6.687605225060745E-005  6.771724943307065E-005
6.856902757352960E-005  6.943151976405162E-005  7.030486077079635E-005  7.118918705507286E-005
7.208463679466227E-005  7.299134990540818E-005  7.390946806307877E-005  7.483913472550429E-005
7.578049515499206E-005  7.673369644102444E-005  7.769888752324163E-005  7.867621921471386E-005
7.966584422550648E-005  8.066791718654075E-005  8.168259467375559E-005  8.271003523257270E-005
8.375039940266973E-005  8.480384974306500E-005  8.587055085751739E-005  8.695066942024627E-005
8.804437420197457E-005  8.915183609629954E-005  9.027322814639542E-005  9.140872557205151E-005
9.255850579705072E-005  9.372274847689245E-005  9.490163552686406E-005  9.609535115046567E-005
9.730408186819206E-005  9.852801654667706E-005  9.976734642820427E-005  1.010222651605891E-004
1.022929688274367E-004  1.035796559787802E-004  1.048825276621049E-004  1.062017874537619E-004
1.075376414907778E-004  1.088902985030636E-004  1.102599698460297E-004  1.116468695336098E-004
1.130512142717018E-004  1.144732234920283E-004  1.159131193864229E-004  1.173711269415489E-004
1.188474739740528E-004  1.203423911661622E-004  1.218561121017299E-004  1.233888733027315E-004
1.249409142662234E-004  1.265124775017637E-004  1.281038085693053E-004  1.297151561175650E-004
1.313467719228755E-004  1.329989109285262E-004  1.346718312845978E-004  1.363657943882996E-004
1.380810649248130E-004  1.398179109086489E-004  1.415766037255261E-004  1.433574181747752E-004
1.451606325122771E-004  1.469865284939407E-004  1.488353914197277E-004  1.507075101782321E-004
1.526031772918186E-004  1.545226889623306E-004  1.564663451173719E-004  1.584344494571708E-004
1.604273095020349E-004  1.624452366404007E-004  1.644885461774889E-004  1.665575573845718E-004
1.686525935488600E-004  1.707739820240166E-004  1.729220542813069E-004  1.750971459613913E-004
1.772995969267701E-004  1.795297513148874E-004  1.817879575919038E-004  1.840745686071445E-004
1.863899416482327E-004  1.887344384969167E-004  1.911084254855989E-004  1.935122735545765E-004
1.959463583100007E-004  1.984110600825669E-004  2.009067639869414E-004  2.034338599819367E-004
2.059927429314437E-004  2.085838126661292E-004  2.112074740459109E-004  2.138641370232173E-004
2.165542167070432E-004  2.192781334278128E-004  2.220363128030554E-004  2.248291858039098E-004
2.276571888224646E-004  2.305207637399449E-004  2.334203579957578E-004  2.363564246574050E-004
2.393294224912759E-004  2.423398160343304E-004  2.453880756666843E-004  2.484746776851072E-004
2.516001043774442E-004  2.547648440979744E-004  2.579693913437182E-004  2.612142468317018E-004
2.644999175771978E-004  2.678269169729444E-004  2.711957648693661E-004  2.746069876558008E-004
2.780611183427487E-004  2.815586966451576E-004  2.851002690667529E-004  2.886863889854309E-004
2.923176167397249E-004  2.959945197163591E-004  2.997176724389047E-004  3.034876566575493E-004
3.073050614399970E-004  3.111704832635117E-004  3.150845261081173E-004  3.190478015509721E-004
3.230609288619270E-004  3.271245351002891E-004  3.312392552128008E-004  3.354057321328505E-004
3.396246168809346E-004  3.438965686663781E-004  3.482222549903386E-004  3.526023517501051E-004
3.570375433447072E-004  3.615285227818558E-004  3.660759917862246E-004  3.706806609090974E-004
3.753432496393929E-004  3.800644865160859E-004  3.848451092420446E-004  3.896858647992959E-004
3.945875095657442E-004  3.995508094333565E-004  4.045765399278349E-004  4.096654863297948E-004
4.148184437974646E-004  4.200362174909325E-004  4.253196226979536E-004  4.306694849613405E-004
4.360866402079567E-004  4.415719348793306E-004  4.471262260639145E-004  4.527503816310061E-004
4.584452803663555E-004  4.642118121094761E-004  4.700508778926853E-004  4.759633900818912E-004
4.819502725191522E-004  4.880124606670299E-004  4.941509017547558E-004  5.003665549262388E-004
5.066603913899328E-004  5.130333945705898E-004  5.194865602629232E-004  5.260208967872010E-004
5.326374251468000E-004  5.393371791877374E-004  5.461212057602126E-004  5.529905648821804E-004
5.599463299049787E-004  5.669895876810447E-004  5.741214387337351E-004  5.813429974292865E-004
5.886553921509380E-004  5.960597654752416E-004  6.035572743505939E-004  6.111490902780103E-004
6.188363994941749E-004  6.266204031567931E-004  6.345023175322735E-004  6.424833741857734E-004
6.505648201736326E-004  6.587479182382281E-004  6.670339470052815E-004  6.754242011836453E-004
6.839199917676056E-004  6.925226462417256E-004  7.012335087882688E-004  7.100539404972312E-004
7.189853195790119E-004  7.280290415797642E-004  7.371865195994499E-004  7.464591845126402E-004
7.558484851920941E-004  7.653558887351445E-004  7.749828806929388E-004  7.847309653025563E-004
7.946016657220496E-004  8.045965242684418E-004  8.147171026587150E-004  8.249649822538339E-004
8.353417643058343E-004  8.458490702080230E-004  8.564885417483254E-004  8.672618413658152E-004
8.781706524104765E-004  8.892166794062290E-004  9.004016483172639E-004  9.117273068177301E-004
9.231954245648098E-004  9.348077934752337E-004  9.465662280052694E-004  9.584725654342345E-004
9.705286661515768E-004  9.827364139475606E-004  9.950977163076171E-004  1.007614504710388E-003
1.020288734929528E-003  1.033122387339295E-003  1.046117467223986E-003  1.059276005091274E-003
1.072600056989472E-003  1.086091704828795E-003  1.099753056706669E-003  1.113586247237119E-003
1.127593437884308E-003  1.141776817300273E-003  1.156138601666904E-003  1.170681035042228E-003
1.185406389711046E-003  1.200316966539985E-003  1.215415095337010E-003  1.230703135215462E-003
1.246183474962676E-003  1.261858533413234E-003  1.277730759826908E-003  1.293802634271369E-003
1.310076668009696E-003  1.326555403892772E-003  1.343241416756604E-003  1.360137313824650E-003
1.377245735115202E-003  1.394569353853893E-003  1.412110876891399E-003  1.429873045126380E-003
1.447858633933761E-003  1.466070453598387E-003  1.484511349754129E-003  1.503184203828533E-003
1.522091933493038E-003  1.541237493118870E-003  1.560623874238675E-003  1.580254106013943E-003
1.600131255708328E-003  1.620258429166910E-003  1.640638771301490E-003  1.661275466581992E-003
1.682171739534038E-003  1.703330855242792E-003  1.724756119863131E-003  1.746450881136241E-003
1.768418528912712E-003  1.790662495682200E-003  1.813186257109770E-003  1.835993332578970E-003
1.859087285741742E-003  1.882471725075255E-003  1.906150304445727E-003  1.930126723679364E-003
1.954404729140448E-003  1.978988114316728E-003  2.003880720412152E-003  2.029086436947067E-003
2.054609202365965E-003  2.080453004652867E-003  2.106621881954460E-003  2.133119923211065E-003
2.159951268795536E-003  2.187120111160213E-003  2.214630695491989E-003  2.242487320375635E-003
2.270694338465468E-003  2.299256157165448E-003  2.328177239317859E-003  2.357462103900627E-003
2.387115326733422E-003  2.417141541192645E-003  2.447545438935390E-003  2.478331770632540E-003
2.509505346711057E-003  2.541071038105624E-003  2.573033777019746E-003  2.605398557696403E-003
2.638170437198426E-003  2.671354536198662E-003  2.704956039780089E-003  2.738980198246010E-003
2.773432327940404E-003  2.808317812078632E-003  2.843642101588563E-003  2.879410715962302E-003
2.915629244118618E-003  2.952303345276220E-003  2.989438749838030E-003  3.027041260286563E-003
3.065116752090577E-003  3.103671174623136E-003  3.142710552091196E-003  3.182240984476916E-003
3.222268648490779E-003  3.262799798536726E-003  3.303840767689412E-003  3.345397968683766E-003
3.387477894916991E-003  3.430087121463174E-003  3.473232306100653E-003  3.516920190352306E-003
3.561157600538931E-003  3.605951448845871E-003  3.651308734403059E-003  3.697236544378643E-003
3.743742055086373E-003  3.790832533106912E-003  3.838515336423257E-003  3.886797915570439E-003
3.935687814799680E-003  3.985192673257204E-003  4.035320226177861E-003  4.086078306093780E-003
4.137474844058219E-003  4.189517870884799E-003  4.242215518402345E-003  4.295576020725496E-003
4.349607715541303E-003  4.404319045412008E-003  4.459718559094217E-003  4.515814912874651E-003
4.572616871922718E-003  4.630133311660086E-003  4.688373219147478E-003  4.747345694488934E-003
4.807059952253702E-003  4.867525322916049E-003  4.928751254313159E-003  4.990747313121378E-003
5.053523186351027E-003  5.117088682860016E-003  5.181453734886499E-003  5.246628399600807E-003
5.312622860676902E-003  5.379447429883594E-003  5.447112548695774E-003  5.515628789925926E-003
5.585006859376136E-003  5.655257597510909E-003  5.726391981151006E-003  5.798421125188590E-003
5.871356284323966E-003  5.945208854824134E-003  6.019990376303489E-003  6.095712533526908E-003
6.172387158235515E-003  6.250026230995413E-003  6.328641883069682E-003  6.408246398313903E-003
6.488852215095540E-003  6.570471928237458E-003  6.653118290985890E-003  6.736804217003165E-003
6.821542782385480E-003  6.907347227706082E-003  6.994230960084118E-003  7.082207555279539E-003
7.171290759814338E-003  7.261494493120461E-003  7.352832849714761E-003  7.445320101401283E-003
7.538970699501270E-003  7.633799277111207E-003  7.729820651389281E-003  7.827049825870578E-003
7.925501992811421E-003  8.025192535563200E-003  8.126137030976041E-003  8.228351251832728E-003
8.331851169313226E-003  8.436652955490211E-003  8.542772985855993E-003  8.650227841881223E-003
8.759034313605772E-003  8.869209402262216E-003  8.980770322932310E-003  9.093734507236882E-003
9.208119606059556E-003  9.323943492304740E-003  9.441224263690309E-003  9.559980245575399E-003
9.680229993823791E-003  9.801992297703300E-003  9.925286182821633E-003  1.005013091409918E-002
1.017654599877921E-002  1.030455118947589E-002  1.043416648726070E-002  1.056541214478762E-002
1.069830866945766E-002  1.083287682662318E-002  1.096913764283252E-002  1.110711240911544E-002
1.124682268430988E-002  1.138829029843058E-002  1.153153735608006E-002  1.167658623990253E-002
1.182345961408118E-002  1.197218042787955E-002  1.212277191922737E-002  1.227525761835153E-002
1.242966135145277E-002  1.258600724442851E-002  1.274431972664263E-002  1.290462353474256E-002
1.306694371652444E-002  1.323130563484694E-002  1.339773497159419E-002  1.356625773168865E-002
1.373690024715445E-002  1.390968918123181E-002  1.408465153254322E-002  1.426181463931204E-002
1.444120618363413E-002  1.462285419580329E-002  1.480678705869096E-002  1.499303351218120E-002
1.518162265766127E-002  1.537258396256886E-002  1.556594726499637E-002  1.576174277835320E-002
1.596000109608666E-002  1.616075319646225E-002  1.636403044740410E-002  1.656986461139624E-002
1.677828785044556E-002  1.698933273110721E-002  1.720303222957315E-002  1.741941973682481E-002
1.763852906385043E-002  1.786039444692815E-002  1.808505055297545E-002  1.831253248496597E-002
1.854287578741441E-002  1.877611645193040E-002  1.901229092284232E-002  1.925143610289173E-002
1.949358935899958E-002  1.973878852810478E-002  1.998707192307637E-002  2.023847833869996E-002
2.049304705773948E-002  2.075081785707519E-002  2.101183101391895E-002  2.127612731210752E-002
2.154374804847524E-002  2.181473503930662E-002  2.208913062687031E-002  2.236697768603515E-002
2.264831963096939E-002  2.293320042192434E-002  2.322166457210317E-002  2.351375715461623E-002
2.380952380952382E-002  2.410901075096750E-002  2.441226477439117E-002  2.471933326385299E-002
2.503026419942916E-002  2.534510616471095E-002  2.566390835439600E-002  2.598672058197505E-002
2.631359328751543E-002  2.664457754554240E-002  2.697972507301968E-002  2.731908823743030E-002
2.766272006495913E-002  2.801067424877835E-002  2.836300515743711E-002  2.871976784335669E-002
2.908101805143263E-002  2.944681222774488E-002  2.981720752837774E-002  3.019226182835047E-002
3.057203373066052E-002  3.095658257544028E-002  3.134596844922910E-002  3.174025219436198E-002
3.213949541847628E-002  3.254376050413802E-002  3.295311061858933E-002  3.336760972361842E-002
3.378732258555376E-002  3.421231478538393E-002  3.464265272900481E-002  3.507840365759562E-002
3.551963565812550E-002  3.596641767399222E-002  3.641881951579475E-002  3.687691187224128E-002
3.734076632119451E-002  3.781045534085581E-002  3.828605232109009E-002  3.876763157489311E-002
3.925526835000307E-002  3.974903884065818E-002  4.024902019950220E-002  4.075529054963965E-002
4.126792899684276E-002  4.178701564191189E-002  4.231263159319141E-002  4.284485897924308E-002
4.338378096167880E-002  4.392948174815477E-002  4.448204660552912E-002  4.504156187318501E-002
4.560811497652136E-002  4.618179444061321E-002  4.676268990404400E-002  4.735089213291174E-002
4.794649303501137E-002  4.854958567419562E-002  4.916026428491636E-002  4.977862428694897E-002
5.040476230030180E-002  5.103877616031333E-002  5.168076493293913E-002  5.233082893023101E-002
5.298906972601116E-002  5.365559017174308E-002  5.433049441260249E-002  5.501388790375012E-002
5.570587742680934E-002  5.640657110655097E-002  5.711607842778807E-002  5.783451025248307E-002
5.856197883707025E-002  5.929859784999599E-002  6.004448238947974E-002  6.079974900149829E-002
6.156451569799636E-002  6.233890197532625E-002  6.312302883291923E-002  6.391701879219218E-002
6.472099591569158E-002  6.553508582647870E-002  6.635941572775837E-002  6.719411442275480E-002
6.803931233483726E-002  6.889514152789909E-002  6.976173572699292E-002  7.063923033922544E-002
7.152776247491512E-002  7.242747096901583E-002  7.333849640281030E-002  7.426098112587604E-002
7.519506927832784E-002  7.614090681333993E-002  7.709864151995148E-002  7.806842304615894E-002
7.905040292229878E-002  8.004473458472454E-002  8.105157339978145E-002  8.207107668808276E-002
8.310340374909149E-002  8.414871588601122E-002  8.520717643099000E-002  8.627895077064152E-002
8.736420637188681E-002  8.846311280812157E-002  8.957584178571218E-002  9.070256717082530E-002
9.184346501659467E-002  9.299871359062986E-002  9.416849340287092E-002  9.535298723379348E-002
9.655238016296848E-002  9.776685959798130E-002  9.899661530371452E-002  1.002418394319991E-001
1.015027265516386E-001  1.027794736788106E-001  1.040722803078514E-001  1.053813484424271E-001
1.067068826270968E-001  1.080490899792739E-001  1.094081802215879E-001  1.107843657146541E-001
1.121778614902558E-001  1.135888852849430E-001  1.150176575740543E-001  1.164644016061668E-001
1.179293434379790E-001  1.194127119696324E-001  1.209147389804782E-001  1.224356591652926E-001
1.239757101709488E-001  1.255351326335499E-001  1.271141702160281E-001  1.287130696462183E-001
1.303320807554096E-001  1.319714565173816E-001  1.336314530879324E-001  1.353123298449035E-001
1.370143494287079E-001  1.387377777833685E-001  1.404828841980719E-001  1.422499413492459E-001
1.440392253431655E-001  1.458510157590950E-001  1.476855956929730E-001  1.495432518016468E-001
1.514242743476628E-001  1.533289572446205E-001  1.552575981030980E-001  1.572104982771531E-001
1.591879629114113E-001  1.611903009887448E-001  1.632178253785520E-001  1.652708528856438E-001
1.673497042997452E-001  1.694547044456190E-001  1.715861822338207E-001  1.737444707120913E-001
1.759299071173965E-001  1.781428329286210E-001  1.803835939199250E-001  1.826525402147722E-001
1.849500263406376E-001  1.872764112844023E-001  1.896320585484471E-001  1.920173362074494E-001
1.944326169658966E-001  1.968782782163208E-001  1.993547020982683E-001  2.018622755580090E-001
2.044013904089975E-001  2.069724433930955E-001  2.095758362425622E-001  2.122119757428272E-001
2.148812737960507E-001  2.175841474854840E-001  2.203210191406405E-001  2.230923164032842E-001
2.258984722942507E-001  2.287399252811073E-001  2.316171193466640E-001  2.345305040583474E-001
2.374805346384459E-001  2.404676720352394E-001  2.434923829950239E-001  2.465551401350404E-001
2.496564220173233E-001  2.527967132234765E-001  2.559765044303896E-001  2.591962924869082E-001
2.624565804914668E-001  2.657578778706994E-001  2.691007004590378E-001  2.724855705793126E-001
2.759130171243666E-001  2.793835756396956E-001  2.828977884071287E-001  2.864562045295604E-001
2.900593800167495E-001  2.937078778721967E-001  2.974022681811146E-001  3.011431281995056E-001
3.049310424443581E-001  3.087666027849795E-001  3.126504085354768E-001  3.165830665483997E-001
3.205651913095642E-001  3.245974050340658E-001  3.286803377635024E-001  3.328146274644200E-001
3.370009201279954E-001  3.412398698709747E-001  3.455321390378792E-001  3.498783983044988E-001
3.542793267826868E-001  3.587356121264713E-001  3.632479506395039E-001  3.678170473838578E-001
3.724436162901947E-001  3.771283802693197E-001  3.818720713251351E-001  3.866754306690201E-001
3.915392088356444E-001  3.964641658002417E-001  4.014510710973581E-001  4.065007039410919E-001
4.116138533468488E-001  4.167913182546260E-001  4.220339076538488E-001  4.273424407097773E-001
4.327177468915016E-001  4.381606661015489E-001  4.436720488071194E-001  4.492527561729736E-001
4.549036601959918E-001  4.606256438414242E-001  4.664196011808572E-001  4.722864375319127E-001
4.782270695997066E-001  4.842424256200862E-001  4.903334455046675E-001  4.965010809877004E-001
5.027462957747768E-001  5.090700656934132E-001  5.154733788455255E-001  5.219572357618207E-001
5.285226495581344E-001  5.351706460937292E-001  5.419022641315889E-001  5.487185555007283E-001
5.556205852605410E-001  5.626094318672197E-001  5.696861873422655E-001  5.768519574431188E-001
5.841078618359372E-001  5.914550342705440E-001  5.988946227575804E-001  6.064277897478833E-001
6.140557123141208E-001  6.217795823347138E-001  6.296006066800667E-001  6.375200074011461E-001
6.455390219204263E-001  6.536589032252408E-001  6.618809200635638E-001  6.702063571422536E-001
6.786365153277927E-001  6.871727118495484E-001  6.958162805055941E-001  7.045685718711183E-001
7.134309535094530E-001  7.224048101857603E-001  7.314915440834032E-001  7.406925750230399E-001
7.500093406844750E-001  7.594432968312980E-001  7.689959175383498E-001  7.786686954220517E-001
7.884631418736268E-001  7.983807872952607E-001  8.084231813392277E-001  8.185918931500286E-001
8.288885116095726E-001  8.393146455854419E-001  8.498719241822832E-001  8.605619969963559E-001
8.713865343732859E-001  8.823472276690618E-001  8.934457895143100E-001  9.046839540818995E-001
9.160634773579084E-001  9.275861374159996E-001  9.392537346952513E-001  9.510680922814752E-001
9.630310561920813E-001  9.751444956645197E-001  9.874103034483517E-001  9.998303961010002E-001
1.012406714287210E+000  1.025141223082284E+000  1.038035912279132E+000  1.051092796699173E+000
1.064313916507163E+000  1.077701337529971E+000  1.091257151579369E+000  1.104983476778881E+000
1.118882457894745E+000  1.132956266671040E+000  1.147207102169020E+000  1.161637191110725E+000
1.176248788226910E+000  1.191044176609352E+000  1.206025668067587E+000  1.221195603490136E+000
1.236556353210273E+000  1.252110317376392E+000  1.267859926327039E+000  1.283807640970656E+000
1.299955953170102E+000  1.316307386132010E+000  1.332864494801051E+000  1.349629866259139E+000
1.366606120129672E+000  1.383795908986858E+000  1.401201918770176E+000  1.418826869204071E+000
1.436673514222905E+000  1.454744642401271E+000  1.473043077389713E+000  1.491571678355925E+000
1.510333340431508E+000  1.529330995164331E+000  1.548567610976596E+000  1.568046193628661E+000
1.587769786688696E+000  1.607741472008242E+000  1.627964370203766E+000  1.648441641144254E+000
1.669176484444950E+000  1.690172139967308E+000  1.711431888325216E+000  1.732959051397611E+000
1.754756992847520E+000  1.776829118647642E+000  1.799178877612540E+000  1.821809761937521E+000
1.844725307744307E+000  1.867929095633551E+000  1.891424751244319E+000  1.915215945820603E+000
1.939306396784956E+000  1.963699868319358E+000  1.988400171953364E+000  2.013411167159668E+000
2.038736761957158E+000  2.064380913521545E+000  2.090347628803687E+000  2.116640965155674E+000
2.143265030964807E+000  2.170223986295535E+000  2.197522043539474E+000  2.225163468073611E+000
2.253152578926765E+000  2.281493749454452E+000  2.310191408022225E+000  2.339250038697620E+000
2.368674181950806E+000  2.398468435364027E+000  2.428637454349995E+000  2.459185952879306E+000
2.490118704217005E+000  2.521440541668427E+000  2.553156359334394E+000  2.585271112875945E+000
2.617789820288658E+000  2.650717562686723E+000  2.684059485096886E+000  2.717820797262358E+000
2.752006774456851E+000  2.786622758308855E+000  2.821674157636270E+000  2.857166449291558E+000
2.893105179017499E+000  2.929495962313729E+000  2.966344485314178E+000  3.003656505675528E+000
3.041437853476879E+000  3.079694432130690E+000  3.118432219305208E+000  3.157657267858492E+000
3.197375706784179E+000  3.237593742169166E+000  3.278317658163303E+000  3.319553817961317E+000
3.361308664797071E+000  3.403588722950334E+000  3.446400598766214E+000  3.489750981687409E+000
3.533646645299446E+000  3.578094448389071E+000  3.623101336015943E+000  3.668674340597828E+000
3.714820583009407E+000  3.761547273694943E+000  3.808861713794921E+000  3.856771296286865E+000
3.905283507140520E+000  3.954405926487527E+000  4.004146229805848E+000  4.054512189119075E+000
4.105511674210818E+000  4.157152653854388E+000  4.209443197057915E+000  4.262391474325163E+000
4.316005758932175E+000  4.370294428219999E+000  4.425265964903670E+000  4.480928958397631E+000
4.537292106157861E+000  4.594364215040871E+000  4.652154202679784E+000  4.710671098877752E+000
4.769924047018853E+000  4.829922305496787E+000  4.890675249161508E+000  4.952192370784063E+000
5.014483282539870E+000  5.077557717510620E+000  5.141425531205103E+000  5.206096703099147E+000
5.271581338194933E+000  5.337889668599931E+000  5.405032055125669E+000  5.473018988906643E+000
5.541861093039579E+000  5.611569124243300E+000  5.682153974539515E+000  5.753626672954685E+000
5.825998387243348E+000  5.899280425633103E+000  5.973484238591538E+000  6.048621420615406E+000
6.124703712042261E+000  6.201743000884929E+000  6.279751324689030E+000  6.358740872413860E+000
6.438723986336971E+000  6.519713163982632E+000  6.601721060074624E+000  6.684760488513560E+000
6.768844424379070E+000  6.853986005957216E+000  6.940198536793337E+000  7.027495487770774E+000
7.115890499215728E+000  7.205397383028568E+000  7.296030124842007E+000  7.387802886206343E+000
7.480730006802250E+000  7.574826006681382E+000  7.670105588535155E+000  7.766583639992096E+000
7.864275235944022E+000  7.963195640901556E+000  8.063360311379228E+000  8.164784898310581E+000
8.267485249493685E+000  8.371477412067353E+000  8.476777635018559E+000  8.583402371721373E+000
8.691368282507831E+000  8.800692237271164E+000  8.911391318101717E+000  9.023482821956092E+000
9.136984263359816E+000  9.251913377144019E+000  9.368288121216574E+000  9.486126679367999E+000
9.605447464112750E+000  9.726269119566203E+000  9.848610524357829E+000  9.972490794581047E+000
1.009792928678011E+001  1.022494560097463E+001  1.035355958372211E+001  1.048379133121902E+001
1.061566119244089E+001  1.074918977232180E+001  1.088439793497403E+001  1.102130680694808E+001
1.115993778053374E+001  1.130031251710268E+001  1.144245295049308E+001  1.158638129043685E+001
1.173212002602992E+001  1.187969192924624E+001  1.202912005849593E+001  1.218042776222820E+001
1.233363868257958E+001  1.248877675906811E+001  1.264586623233384E+001  1.280493164792659E+001
1.296599786014118E+001  1.312909003590093E+001  1.329423365869014E+001  1.346145453253584E+001
1.363077878603979E+001  1.380223287646110E+001  1.397584359385022E+001  1.415163806523496E+001
1.432964375885910E+001  1.450988848847447E+001  1.469240041768675E+001  1.487720806435622E+001
1.506434030505367E+001  1.525382637957240E+001  1.544569589549710E+001  1.563997883282999E+001
1.583670554867529E+001  1.603590678198261E+001  1.623761365834989E+001  1.644185769488699E+001
1.664867080514014E+001  1.685808530407857E+001  1.707013391314381E+001  1.728484976536241E+001
1.750226641052317E+001  1.772241782041921E+001  1.794533839415624E+001  1.817106296352742E+001
1.839962679845595E+001  1.863106561250609E+001  1.886541556846338E+001  1.910271328398523E+001
1.934299583732248E+001  1.958630077311291E+001  1.983266610824781E+001  2.008213033781199E+001
2.033473244109886E+001  2.059051188770099E+001  2.084950864367729E+001  2.111176317779782E+001
2.137731646786710E+001  2.164621000712698E+001  2.191848581074002E+001  2.219418642235448E+001
2.247335492075188E+001  2.275603492657804E+001  2.304227060915899E+001  2.333210669340248E+001
2.362558846678634E+001  2.392276178643479E+001  2.422367308628360E+001  2.452836938433559E+001
2.483689829000724E+001  2.514930801156774E+001  2.546564736367174E+001  2.578596577498658E+001
2.611031329591571E+001  2.643874060641917E+001  2.677129902393239E+001  2.710804051138476E+001
2.744901768531878E+001  2.779428382411158E+001  2.814389287629981E+001  2.849789946900913E+001
2.885635891648994E+001  2.921932722876016E+001  2.958686112035706E+001  2.995901801919896E+001
3.033585607555843E+001  3.071743417114850E+001  3.110381192832293E+001  3.149504971939235E+001
3.189120867605760E+001  3.229235069896163E+001  3.269853846736169E+001  3.310983544892298E+001
3.352630590963564E+001  3.394801492385648E+001  3.437502838447691E+001  3.480741301321900E+001
3.524523637106063E+001  3.568856686879222E+001  3.613747377770602E+001  3.659202724041982E+001
3.705229828183702E+001  3.751835882024424E+001  3.799028167854882E+001  3.846814059565751E+001
3.895201023799827E+001  3.944196621118723E+001  3.993808507184199E+001  4.044044433954390E+001
4.094912250895057E+001  4.146419906206092E+001  4.198575448063424E+001  4.251387025876588E+001
4.304862891562059E+001  4.359011400832648E+001  4.413841014503095E+001  4.469360299812084E+001
4.525577931760906E+001  4.582502694468926E+001  4.640143482546131E+001  4.698509302482928E+001
4.757609274057426E+001  4.817452631760431E+001  4.878048726238332E+001  4.939407025754175E+001
5.001537117667094E+001  5.064448709930350E+001  5.128151632608238E+001  5.192655839412026E+001
5.257971409255263E+001  5.324108547828624E+001  5.391077589194559E+001  5.458888997402044E+001
5.527553368121568E+001  5.597081430300756E+001  5.667484047840780E+001  5.738772221293861E+001
5.810957089582145E+001  5.884049931738161E+001  5.958062168667203E+001  6.033005364931872E+001