<UPF version="2.0.1">
<PP_INFO>
Generated in analytical, separable form
Author: Goedecker/Hartwigsen/Hutter/Teter
Generation date: Phys.Rev.B58, 3641 (1998); B54, 1703 (1996)
Pseudopotential type: NC
Element: Si
Functional: SLA-PW-PBX-PBC

Suggested minimum cutoff for wavefunctions:   0. Ry
Suggested minimum cutoff for charge density:   0. Ry
The Pseudo was generated with a Scalar-Relativistic Calculation
Local Potential: unknown format, L component and cutoff radius: -3   0.0000

Valence configuration:
nl pn  l   occ       Rcut    Rcut US       E pseu

Generation configuration: not available.
Converted from CPMD format using cpmd2upf v.5.0.1 - PG 10Jul2012
Contains atomic orbitals generated by ld1.x - use with care
</PP_INFO>
<!--                               -->
<!-- END OF HUMAN READABLE SECTION -->
<!--                               -->
<PP_HEADER generated="Generated in analytical, separable form"
author="Goedecker/Hartwigsen/Hutter/Teter"
date="Phys.Rev.B58, 3641 (1998); B54, 1703 (1996)"
comment="Contains atomic orbitals generated by ld1.x - use with care"
element="Si"
pseudo_type="NC"
relativistic="scalar"
is_ultrasoft="F"
is_paw="F"
is_coulomb="F"
has_so="F"
has_wfc="F"
has_gipaw="F"
paw_as_gipaw="F"
core_correction="F"
functional="SLA-PW-PBX-PBC"
z_valence="4.000000000000000E+000"
total_psenergy="0.000000000000000E+000"
wfc_cutoff="0.000000000000000E+000"
rho_cutoff="0.000000000000000E+000"
l_max="1"
l_max_rho="0"
l_local="-3"
mesh_size="1141"
number_of_wfc=" 2"
number_of_proj="3"/>
<PP_MESH dx="1.250000000000000E-002" mesh="1141" xmin="-7.000000000000000E+000" rmax="1.005789177289069E+002"
zmesh="1.400000000000000E+001">
<PP_R type="real" size="1141" columns="4">
6.513442611103688E-005  6.595371633350159E-005  6.678331195832729E-005  6.762334261151813E-005
6.847393954957285E-005  6.933523567999349E-005  7.020736558205276E-005  7.109046552782224E-005
7.198467350346503E-005  7.289012923079676E-005  7.380697418911693E-005  7.473535163731561E-005
7.567540663625787E-005  7.662728607144977E-005  7.759113867598985E-005  7.856711505380845E-005
7.955536770320024E-005  8.055605104065232E-005  8.156932142497197E-005  8.259533718171841E-005
8.363425862794104E-005  8.468624809722948E-005  8.575146996507863E-005  8.683009067457247E-005
8.792227876239150E-005  8.902820488514639E-005  9.014804184604389E-005  9.128196462188746E-005
9.243015039041771E-005  9.359277855799715E-005  9.477003078764225E-005  9.596209102740905E-005
9.716914553913527E-005  9.839138292754407E-005  9.962899416971419E-005  1.008821726449201E-004
1.021511141648482E-004  1.034360170041925E-004  1.047370819316359E-004  1.060545122412205E-004
1.073885137841123E-004  1.087392950007665E-004  1.101070669534965E-004  1.114920433594523E-004
1.128944406240155E-004  1.143144778746117E-004  1.157523769949505E-004  1.172083626596947E-004
1.186826623695667E-004  1.201755064868958E-004  1.216871282716124E-004  1.232177639176959E-004
1.247676525900800E-004  1.263370364620229E-004  1.279261607529478E-004  1.295352737667582E-004
1.311646269306362E-004  1.328144748343287E-004  1.344850752699270E-004  1.361766892721483E-004
1.378895811591221E-004  1.396240185736905E-004  1.413802725252283E-004  1.431586174319885E-004
1.449593311639810E-004  1.467826950863899E-004  1.486289941035378E-004  1.504985167034024E-004
1.523915550026934E-004  1.543084047924968E-004  1.562493655844918E-004  1.582147406577512E-004
1.602048371061288E-004  1.622199658862433E-004  1.642604418660669E-004  1.663265838741224E-004
1.684187147493023E-004  1.705371613913124E-004  1.726822548117502E-004  1.748543301858274E-004
1.770537269047399E-004  1.792807886286999E-004  1.815358633406327E-004  1.838193034005500E-004
1.861314656006070E-004  1.884727112208515E-004  1.908434060856750E-004  1.932439206209733E-004
1.956746299120263E-004  1.981359137621063E-004  2.006281567518223E-004  2.031517482992120E-004
2.057070827205888E-004  2.082945592921548E-004  2.109145823123890E-004  2.135675611652186E-004
2.162539103839868E-004  2.189740497162245E-004  2.217284041892363E-004  2.245174041765129E-004
2.273414854649762E-004  2.302010893230733E-004  2.330966625697249E-004  2.360286576441416E-004
2.389975326765194E-004  2.420037515596223E-004  2.450477840212668E-004  2.481301056977181E-004
2.512511982080092E-004  2.544115492291950E-004  2.576116525725522E-004  2.608520082607388E-004
2.641331226059237E-004  2.674555082888986E-004  2.708196844391863E-004  2.742261767161545E-004
2.776755173911522E-004  2.811682454306774E-004  2.847049065805922E-004  2.882860534513970E-004
2.919122456045762E-004  2.955840496400312E-004  2.993020392846128E-004  3.030667954817672E-004
3.068789064823100E-004  3.107389679363406E-004  3.146475829863147E-004  3.186053623612859E-004
3.226129244723333E-004  3.266708955091909E-004  3.307799095380890E-004  3.349406086008293E-004
3.391536428151055E-004  3.434196704760850E-004  3.477393581592688E-004  3.521133808246465E-004
3.565424219221583E-004  3.610271734984867E-004  3.655683363051897E-004  3.701666199081946E-004
3.748227427986703E-004  3.795374325052911E-004  3.843114257079157E-004  3.891454683526949E-004
3.940403157686265E-004  3.989967327855786E-004  4.040154938537934E-004  4.090973831648989E-004
4.142431947744390E-004  4.194537327259466E-004  4.247298111765782E-004  4.300722545243256E-004
4.354818975368313E-004  4.409595854818219E-004  4.465061742591829E-004  4.521225305346962E-004
4.578095318754559E-004  4.635680668869919E-004  4.693990353521156E-004  4.753033483715124E-004
4.812819285061048E-004  4.873357099212019E-004  4.934656385324666E-004  4.996726721537154E-004
5.059577806465798E-004  5.123219460720500E-004  5.187661628439208E-004  5.252914378841740E-004
5.318987907803103E-004  5.385892539446621E-004  5.453638727757115E-004  5.522237058214336E-004
5.591698249446981E-004  5.662033154907502E-004  5.733252764567968E-004  5.805368206637293E-004
5.878390749300021E-004  5.952331802477007E-004  6.027202919608241E-004  6.103015799458100E-004
6.179782287943310E-004  6.257514379983877E-004  6.336224221377328E-004  6.415924110696518E-004
6.496626501211296E-004  6.578344002834386E-004  6.661089384091661E-004  6.744875574117294E-004
6.829715664673938E-004  6.915622912198345E-004  7.002610739872734E-004  7.090692739722151E-004
7.179882674738276E-004  7.270194481029912E-004  7.361642270000529E-004  7.454240330553218E-004
7.548003131323325E-004  7.642945322939235E-004  7.739081740311544E-004  7.836427404951055E-004
7.934997527315933E-004  8.034807509188332E-004  8.135872946080984E-004  8.238209629674023E-004
8.341833550282459E-004  8.446760899354727E-004  8.553008072002587E-004  8.660591669562928E-004
8.769528502191749E-004  8.879835591490773E-004  8.991530173167141E-004  9.104629699726478E-004
9.219151843199909E-004  9.335114497905352E-004  9.452535783243520E-004  9.571434046529162E-004
9.691827865857810E-004  9.813736053008674E-004  9.937177656384022E-004  1.006217196398552E-003
1.018873850642804E-003  1.031689705999134E-003  1.044666764971016E-003  1.057807055250315E-003
1.071112630034122E-003  1.084585568345568E-003  1.098227975358674E-003  1.112041982727292E-003
1.126029748918179E-003  1.140193459548258E-003  1.154535327726134E-003  1.169057594397888E-003
1.183762528697233E-003  1.198652428300069E-003  1.213729619783505E-003  1.228996458989384E-003
1.244455331392394E-003  1.260108652472797E-003  1.275958868093861E-003  1.292008454884021E-003
1.308259920623870E-003  1.324715804637992E-003  1.341378678191743E-003  1.358251144893018E-003
1.375335841099067E-003  1.392635436328428E-003  1.410152633678056E-003  1.427890170245673E-003
1.445850817557456E-003  1.464037382001090E-003  1.482452705264267E-003  1.501099664778717E-003
1.519981174169798E-003  1.539100183711769E-003  1.558459680788769E-003  1.578062690361603E-003
1.597912275440400E-003  1.618011537563212E-003  1.638363617280638E-003  1.658971694646541E-003
1.679838989714936E-003  1.700968763043134E-003  1.722364316201205E-003  1.744028992287860E-003
1.765966176452814E-003  1.788179296425725E-003  1.810671823051782E-003  1.833447270834031E-003
1.856509198482525E-003  1.879861209470380E-003  1.903506952596820E-003  1.927450122557320E-003
1.951694460520898E-003  1.976243754714684E-003  2.001101841015845E-003  2.026272603550936E-003
2.051759975302817E-003  2.077567938725177E-003  2.103700526364806E-003  2.130161821491693E-003
2.156955958737036E-003  2.184087124739293E-003  2.211559558798349E-003  2.239377553537921E-003
2.267545455576282E-003  2.296067666205433E-003  2.324948642078817E-003  2.354192895907669E-003
2.383804997166148E-003  2.413789572805326E-003  2.444151307976145E-003  2.474894946761502E-003
2.506025292917503E-003  2.537547210624069E-003  2.569465625244976E-003  2.601785524097445E-003
2.634511957231430E-003  2.667650038218687E-003  2.701204944951792E-003  2.735181920453190E-003
2.769586273694429E-003  2.804423380425701E-003  2.839698684015808E-003  2.875417696302704E-003
2.911585998454730E-003  2.948209241842682E-003  2.985293148922851E-003  3.022843514131165E-003
3.060866204788585E-003  3.099367162017884E-003  3.138352401671959E-003  3.177828015273823E-003
3.217800170968416E-003  3.258275114486386E-003  3.299259170120008E-003  3.340758741711356E-003
3.382780313652924E-003  3.425330451900820E-003  3.468415805000712E-003  3.512043105126685E-003
3.556219169133139E-003  3.600950899619956E-003  3.646245286011030E-003  3.692109405646385E-003
3.738550424888029E-003  3.785575600239702E-003  3.833192279480724E-003  3.881407902814107E-003
3.930230004029088E-003  3.979666211678316E-003  4.029724250269812E-003  4.080411941473949E-003
4.131737205345606E-003  4.183708061561681E-003  4.236332630674197E-003  4.289619135379141E-003
4.343575901801284E-003  4.398211360795159E-003  4.453534049262388E-003  4.509552611485600E-003
4.566275800479114E-003  4.623712479356611E-003  4.681871622716026E-003  4.740762318041829E-003
4.800393767124984E-003  4.860775287500730E-003  4.921916313904470E-003  4.983826399745976E-003
5.046515218602114E-003  5.109992565728375E-003  5.174268359589393E-003  5.239352643408724E-003
5.305255586738136E-003  5.371987487046600E-003  5.439558771329311E-003  5.507979997736910E-003
5.577261857225227E-003  5.647415175225763E-003  5.718450913337182E-003  5.790380171038091E-003
5.863214187421345E-003  5.936964342950183E-003  6.011642161236458E-003  6.087259310841203E-003
6.163827607097896E-003  6.241359013958602E-003  6.319865645863379E-003  6.399359769633193E-003
6.479853806386608E-003  6.561360333480639E-003  6.643892086475966E-003  6.727461961126906E-003
6.812083015396404E-003  6.897768471496345E-003  6.984531717953578E-003  7.072386311701881E-003
7.161345980200268E-003  7.251424623577934E-003  7.342636316806171E-003  7.434995311897620E-003
7.528516040133171E-003  7.623213114316872E-003  7.719101331059236E-003  7.816195673089209E-003
7.914511311595280E-003  8.014063608595984E-003  8.114868119340269E-003  8.216940594738030E-003
8.320296983821212E-003  8.424953436235895E-003  8.530926304765691E-003  8.638232147886907E-003
8.746887732355853E-003  8.856910035828659E-003  8.968316249514090E-003  9.081123780859689E-003
9.195350256271731E-003  9.311013523869408E-003  9.428131656273587E-003  9.546722953430746E-003
9.666805945472338E-003  9.788399395610176E-003  9.911522303068234E-003  1.003619390605130E-002
1.016243368475097E-002  1.029026136438952E-002  1.041969691830196E-002  1.055076057105692E-002
1.068347280161679E-002  1.081785434653761E-002  1.095392620320918E-002  1.109170963313593E-002
1.123122616525912E-002  1.137249759932074E-002  1.151554600926977E-002  1.166039374671132E-002
1.180706344439904E-002  1.195557801977161E-002  1.210596067853358E-002  1.225823491828134E-002
1.241242453217466E-002  1.256855361265440E-002  1.272664655520704E-002  1.288672806217649E-002
1.304882314662391E-002  1.321295713623602E-002  1.337915567728265E-002  1.354744473862395E-002
1.371785061576815E-002  1.389039993498026E-002  1.406511965744243E-002  1.424203708346680E-002
1.442117985676110E-002  1.460257596874815E-002  1.478625376293948E-002  1.497224193936413E-002
1.516056955905308E-002  1.535126604858005E-002  1.554436120465950E-002  1.573988519880242E-002
1.593786858203071E-002  1.613834228965078E-002  1.634133764608732E-002  1.654688636977778E-002
1.675502057812841E-002  1.696577279253273E-002  1.717917594345302E-002  1.739526337556577E-002
1.761406885297189E-002  1.783562656447240E-002  1.805997112891047E-002  1.828713760058073E-002
1.851716147470655E-002  1.875007869298624E-002  1.898592564920904E-002  1.922473919494171E-002
1.946655664528662E-002  1.971141578471237E-002  1.995935487295767E-002  2.021041265100950E-002
2.046462834715644E-002  2.072204168311825E-002  2.098269288025235E-002  2.124662266583862E-002
2.151387227944301E-002  2.178448347936138E-002  2.205849854914428E-002  2.233596030420385E-002
2.261691209850381E-002  2.290139783133362E-002  2.318946195416784E-002  2.348114947761173E-002
2.377650597843426E-002  2.407557760668960E-002  2.437841109292813E-002  2.468505375549818E-002
2.499555350793968E-002  2.530995886647063E-002  2.562831895756798E-002  2.595068352564367E-002
2.627710294081732E-002  2.660762820678665E-002  2.694231096879693E-002  2.728120352171065E-002
2.762435881817867E-002  2.797183047691422E-002  2.832367279107093E-002  2.867994073672620E-002
2.904068998147137E-002  2.940597689310990E-002  2.977585854846490E-002  3.015039274229754E-002
3.052963799633763E-002  3.091365356842767E-002  3.130249946178210E-002  3.169623643436286E-002
3.209492600837299E-002  3.249863047986955E-002  3.290741292849757E-002  3.332133722734632E-002
3.374046805292964E-002  3.416487089529173E-002  3.459461206824019E-002  3.502975871970759E-002
3.547037884224355E-002  3.591654128363865E-002  3.636831575768210E-002  3.682577285505460E-002
3.728898405435830E-002  3.775802173328553E-002  3.823295917992788E-002  3.871387060422767E-002
3.920083114957333E-002  3.969391690454083E-002  4.019320491478257E-002  4.069877319506594E-002
4.121070074146334E-002  4.172906754369543E-002  4.225395459762966E-002  4.278544391793612E-002
4.332361855090240E-002  4.386856258740986E-002  4.442036117607288E-002  4.497910053654359E-002
4.554486797298383E-002  4.611775188770659E-002  4.669784179498911E-002  4.728522833505959E-002
4.788000328825997E-002  4.848225958938675E-002  4.909209134221232E-002  4.970959383418873E-002
5.033486355133669E-002  5.096799819332163E-002  5.160909668871946E-002  5.225825921047444E-002
5.291558719155130E-002  5.358118334078443E-002  5.425515165892635E-002  5.493759745489792E-002
5.562862736224323E-002  5.632834935579121E-002  5.703687276852696E-002  5.775430830867519E-002
5.848076807699872E-002  5.921636558431433E-002  5.996121576922912E-002  6.071543501609989E-002
6.147914117321844E-002  6.225245357122559E-002  6.303549304175685E-002  6.382838193632258E-002
6.463124414542572E-002  6.544420511791986E-002  6.626739188061094E-002  6.710093305810544E-002
6.794495889290816E-002  6.879960126577302E-002  6.966499371630951E-002  7.054127146384870E-002
7.142857142857147E-002  7.232703225290249E-002  7.323679432317352E-002  7.415799979155897E-002
7.509079259828746E-002  7.603531849413284E-002  7.699172506318799E-002  7.796016174592516E-002
7.894077986254630E-002  7.993373263662720E-002  8.093917521905905E-002  8.195726471229091E-002
8.298816019487740E-002  8.403202274633506E-002  8.508901547231132E-002  8.615930353007008E-002
8.724305415429788E-002  8.834043668323466E-002  8.945162258513320E-002  9.057678548505142E-002
9.171610119198158E-002  9.286974772632083E-002  9.403790534768730E-002  9.522075658308594E-002
9.641848625542883E-002  9.763128151241407E-002  9.885933185576799E-002  1.001028291708553E-001
1.013619677566613E-001  1.026369443561518E-001  1.039279581870144E-001  1.052352109727869E-001
1.065589069743765E-001  1.078992530219767E-001  1.092564585473842E-001  1.106307356167238E-001
1.120222989635835E-001  1.134313660225674E-001  1.148581569632703E-001  1.163028947246793E-001
1.177658050500092E-001  1.192471165219745E-001  1.207470605985066E-001  1.222658716489189E-001
1.238037869905283E-001  1.253610469257357E-001  1.269378947795742E-001  1.285345769377292E-001
1.301513428850364E-001  1.317884452444643E-001  1.334461398165874E-001  1.351246856195550E-001
1.368243449295641E-001  1.385453833218396E-001  1.402880697121320E-001  1.420526763987352E-001
1.438394791050341E-001  1.456487570225869E-001  1.474807928547491E-001  1.493358728608469E-001
1.512142869009054E-001  1.531163284809400E-001  1.550422947988174E-001  1.569924867906931E-001
1.589672091780335E-001  1.609667705152293E-001  1.629914832378075E-001  1.650416637112504E-001
1.671176322804280E-001  1.692197133196529E-001  1.713482352833642E-001  1.735035307574492E-001
1.756859365112108E-001  1.778957935499880E-001  1.801334471684392E-001  1.823992470044949E-001
1.846935470939891E-001  1.870167059259787E-001  1.893690864987577E-001  1.917510563765765E-001
1.941629877470747E-001  1.966052574794361E-001  1.990782471832751E-001  2.015823432682644E-001
2.041179370045118E-001  2.066854245836973E-001  2.092852071809788E-001  2.119176910176763E-001
2.145832874247453E-001  2.172824129070475E-001  2.200154892084309E-001  2.227829433776281E-001
2.255852078349835E-001  2.284227204400198E-001  2.312959245598545E-001  2.342052691384768E-001
2.371512087668964E-001  2.401342037541736E-001  2.431547201993443E-001  2.462132300642483E-001
2.493102112472745E-001  2.524461476580336E-001  2.556215292929701E-001  2.588368523119245E-001
2.620926191156605E-001  2.653893384243647E-001  2.687275253571366E-001  2.721077015124759E-001
2.755303950497840E-001  2.789961407718896E-001  2.825054802086128E-001  2.860589617013805E-001
2.896571404889055E-001  2.933005787939439E-001  2.969898459111436E-001  3.007255182959973E-001
3.045081796549157E-001  3.083384210364319E-001  3.122168409235543E-001  3.161440453272811E-001
3.201206478812905E-001  3.241472699378218E-001  3.282245406647636E-001  3.323530971439624E-001
3.365335844707674E-001  3.407666558548290E-001  3.450529727221629E-001  3.493932048185005E-001
3.537880303139370E-001  3.582381359088972E-001  3.627442169414345E-001  3.673069774958777E-001
3.719271305128465E-001  3.766053979006496E-001  3.813425106480842E-001  3.861392089386549E-001
3.909962422662287E-001  3.959143695521447E-001  4.008943592637971E-001  4.059369895347104E-001
4.110430482861238E-001  4.162133333501054E-001  4.214486525942157E-001  4.267498240477376E-001
4.321176760294964E-001  4.375530472772849E-001  4.430567870789192E-001  4.486297554049405E-001
4.542728230429883E-001  4.599868717338616E-001  4.657727943092939E-001  4.716314948314593E-001
4.775638887342338E-001  4.835709029662342E-001  4.896534761356559E-001  4.958125586569313E-001
5.020491128992355E-001  5.083641133368570E-001  5.147585467014623E-001  5.212334121362739E-001
5.277897213521895E-001  5.344284987858631E-001  5.411507817597749E-001  5.479576206443167E-001
5.548500790219127E-001  5.618292338532068E-001  5.688961756453412E-001  5.760520086223482E-001
5.832978508976897E-001  5.906348346489624E-001  5.980641062948049E-001  6.055868266740270E-001
6.132041712269926E-001  6.209173301792863E-001  6.287275087276866E-001  6.366359272284815E-001
6.446438213881519E-001  6.527524424564520E-001  6.609630574219213E-001  6.692769492098526E-001
6.776954168827521E-001  6.862197758433221E-001  6.948513580399920E-001  7.035915121750421E-001
7.124416039153376E-001  7.214030161057183E-001  7.304771489850718E-001  7.396654204051211E-001
7.489692660519699E-001  7.583901396704293E-001  7.679295132911685E-001  7.775888774607246E-001
7.873697414744003E-001  7.972736336120981E-001  8.073021013771136E-001  8.174567117379377E-001
8.277390513730998E-001  8.381507269190867E-001  8.486933652213862E-001  8.593686135886813E-001
8.701781400502485E-001  8.811236336165901E-001  8.922068045433438E-001  9.034293845985166E-001
9.147931273330744E-001  9.262998083549386E-001  9.379512256064303E-001  9.497491996451991E-001
9.616955739286926E-001  9.737922151021975E-001  9.860410132905073E-001  9.984438823932600E-001
1.011002760383986E+000  1.023719609612924E+000  1.036596417113637E+000  1.049635194913496E+000
1.062837980348060E+000  1.076206836379414E+000  1.089743851918512E+000  1.103451142151573E+000
1.117330848870584E+000  1.131385140807959E+000  1.145616213975405E+000  1.160026292007060E+000
1.174617626506933E+000  1.189392497400725E+000  1.204353213292074E+000  1.219502111823276E+000
1.234841560040546E+000  1.250373954763878E+000  1.266101722961546E+000  1.282027322129332E+000
1.298153240674505E+000  1.314481998304647E+000  1.331016146421358E+000  1.347758268518921E+000
1.364710980587976E+000  1.381876931524273E+000  1.399258803542571E+000  1.416859312595738E+000
1.434681208799120E+000  1.452727276860259E+000  1.471000336514003E+000  1.489503242963101E+000
1.508238887324330E+000  1.527210197080240E+000  1.546420136536576E+000  1.565871707285462E+000
1.585567948674403E+000  1.605511938281188E+000  1.625706792394767E+000  1.646155666502185E+000
1.666861755781623E+000  1.687828295601659E+000  1.709058562026797E+000  1.730555872329356E+000
1.752323585507812E+000  1.774365102811632E+000  1.796683868272741E+000  1.819283369243650E+000
1.842167136942362E+000  1.865338747004141E+000  1.888801820040200E+000  1.912560022203438E+000
1.936617065761279E+000  1.960976709675722E+000  1.985642760190691E+000  2.010619071426761E+000
2.035909545983378E+000  2.061518135548645E+000  2.087448841516782E+000  2.113705715613355E+000
2.140292860528359E+000  2.167214430557281E+000  2.194474632250210E+000  2.222077725069119E+000
2.250028022053425E+000  2.278329890493894E+000  2.306987752615050E+000  2.336006086266155E+000
2.365389425620880E+000  2.395142361885782E+000  2.425269544017683E+000  2.455775679450086E+000
2.486665534828718E+000  2.517943936756326E+000  2.549615772546850E+000  2.581685990989068E+000
2.614159603119858E+000  2.647041683007185E+000  2.680337368542930E+000  2.714051862245699E+000
2.748190432073725E+000  2.782758412247999E+000  2.817761204085754E+000  2.853204276844425E+000
2.889093168576244E+000  2.925433486993559E+000  2.962230910345055E+000  2.999491188303001E+000
3.037220142861629E+000  3.075423669246853E+000  3.114107736837395E+000  3.153278390097518E+000
3.192941749521490E+000  3.233104012589913E+000  3.273771454738107E+000  3.314950430336643E+000
3.356647373684236E+000  3.398868800013122E+000  3.441621306507060E+000  3.484911573332174E+000
3.528746364680730E+000  3.573132529828055E+000  3.618077004202762E+000  3.663586810470409E+000
3.709669059630819E+000  3.756330952129177E+000  3.803579778981117E+000  3.851422922911969E+000
3.899867859510306E+000  3.948922158396031E+000  3.998593484403154E+000  4.048889598777416E+000
4.099818360389017E+000  4.151387726960574E+000  4.203605756310529E+000  4.256480607612214E+000
4.310020542668714E+000  4.364233927203812E+000  4.419129232169139E+000  4.474715035067776E+000
4.531000021294525E+000  4.587992985492993E+000  4.645702832929786E+000  4.704138580885982E+000
4.763309360066087E+000  4.823224416024725E+000  4.883893110611297E+000  4.945324923432760E+000
5.007529453334851E+000  5.070516419901923E+000  5.134295664975648E+000  5.198877154192834E+000
5.264270978542561E+000  5.330487355942927E+000  5.397536632837620E+000  5.465429285812563E+000
5.534175923232922E+000  5.603787286900654E+000  5.674274253732958E+000  5.745647837461808E+000
5.817919190354867E+000  5.891099604958073E+000  5.965200515860091E+000  6.040233501479006E+000
6.116210285871476E+000  6.193142740564636E+000  6.271042886411061E+000  6.349922895467023E+000
6.429795092894421E+000  6.510671958886603E+000  6.592566130618421E+000  6.675490404220833E+000
6.759457736780297E+000  6.844481248363354E+000  6.930574224066675E+000  7.017750116092862E+000
7.106022545852419E+000  7.195405306092080E+000  7.285912363049984E+000  7.377557858637918E+000
7.470356112651016E+000  7.564321625005280E+000  7.659469078003183E+000  7.755813338627836E+000
7.853369460865972E+000  7.952152688060168E+000  8.052178455290660E+000  8.153462391787075E+000
8.256020323370555E+000  8.359868274926566E+000  8.465022472908810E+000  8.571499347874676E+000
8.679315537052497E+000  8.788487886941189E+000  8.899033455942533E+000  9.010969517026583E+000
9.124313560430638E+000  9.239083296392069E+000  9.355296657915622E+000  9.472971803575476E+000
9.592127120352538E+000  9.712781226507499E+000  9.834952974489909E+000  9.958661453883950E+000
1.008392599439121E+001  1.021076616885100E+001  1.033920179629864E+001  1.046925294506223E+001
1.060093993589834E+001  1.073428334516721E+001  1.086930400804783E+001  1.100602302179348E+001
1.114446174902822E+001  1.128464182108483E+001  1.142658514138476E+001  1.157031388886060E+001
1.171585052142156E+001  1.186321777946258E+001  1.201243868941754E+001  1.216353656735722E+001
1.231653502263245E+001  1.247145796156316E+001  1.262832959117375E+001  1.278717442297549E+001
1.294801727679653E+001  1.311088328466000E+001  1.327579789471101E+001  1.344278687519289E+001
1.361187631847358E+001  1.378309264512261E+001  1.395646260803935E+001  1.413201329663326E+001
1.430977214105656E+001  1.448976691649036E+001  1.467202574748453E+001  1.485657711235219E+001
1.504344984761961E+001  1.523267315253186E+001  1.542427659361531E+001  1.561829010929744E+001
1.581474401458480E+001  1.601366900579979E+001  1.621509616537701E+001  1.641905696671993E+001
1.662558327911874E+001  1.683470737272990E+001  1.704646192361855E+001  1.726088001886405E+001
1.747799516173004E+001  1.769784127689931E+001  1.792045271577461E+001  1.814586426184622E+001
1.837411113612678E+001  1.860522900265479E+001  1.883925397406709E+001  1.907622261724158E+001
1.931617195901091E+001  1.955913949194790E+001  1.980516318022387E+001  2.005428146554068E+001
2.030653327313721E+001  2.056195801787165E+001  2.082059561038001E+001  2.108248646331232E+001
2.134767149764718E+001  2.161619214908570E+001  2.188809037452602E+001  2.216340865861903E+001
2.244219002040675E+001  2.272447802004415E+001  2.301031676560547E+001  2.329975091997629E+001
2.359282570783207E+001  2.388958692270467E+001  2.419008093413768E+001  2.449435469493174E+001
2.480245574848106E+001  2.511443223620206E+001  2.543033290505567E+001  2.575020711516412E+001
2.607410484752349E+001  2.640207671181349E+001  2.673417395430516E+001  2.707044846586828E+001
2.741095279007945E+001  2.775574013143206E+001  2.810486436364972E+001  2.845838003810400E+001
2.881634239233825E+001  2.917880735869861E+001  2.954583157307349E+001  2.991747238374314E+001
3.029378786034033E+001  3.067483680292388E+001  3.106067875116633E+001  3.145137399365706E+001
3.184698357732265E+001  3.224756931696540E+001  3.265319380492210E+001  3.306392042084425E+001
3.347981334160121E+001  3.390093755130803E+001  3.432735885147924E+001  3.475914387131054E+001
3.519636007808977E+001  3.563907578773872E+001  3.608736017548779E+001  3.654128328668459E+001
3.700091604773875E+001  3.746633027720431E+001  3.793759869700151E+001  3.841479494377978E+001
3.889799358042353E+001  3.938727010770280E+001  3.988270097607043E+001  4.038436359760751E+001
4.089233635811939E+001  4.140669862938331E+001  4.192753078155067E+001  4.245491419570487E+001
4.298893127657730E+001  4.352966546542341E+001  4.407720125306026E+001  4.463162419306867E+001
4.519302091516101E+001  4.576147913871721E+001  4.633708768649132E+001  4.691993649848998E+001
4.751011664602589E+001  4.810772034594782E+001  4.871284097504968E+001  4.932557308466098E+001
4.994601241542041E+001  5.057425591223572E+001  5.121040173943142E+001  5.185454929608724E+001
5.250679923156952E+001  5.316725346125764E+001  5.383601518246871E+001  5.451318889058226E+001
5.519888039536785E+001  5.589319683751827E+001  5.659624670539015E+001  5.730813985195569E+001
5.802898751196743E+001  5.875890231933874E+001  5.949799832474343E+001  6.024639101343597E+001
6.100419732329659E+001  6.177153566310299E+001  6.254852593103185E+001  6.333528953339346E+001
6.413194940360131E+001  6.493863002138093E+001  6.575545743222007E+001  6.658255926706344E+001
6.742006476225563E+001  6.826810477973412E+001  6.912681182747697E+001  6.999632008020744E+001
7.087676540035902E+001  7.176828535930436E+001  7.267101925885081E+001  7.358510815300677E+001
7.451069487002171E+001  7.544792403470322E+001  7.639694209101523E+001  7.735789732495972E+001
7.833093988774712E+001  7.931622181925751E+001  8.031389707179719E+001  8.132412153415429E+001
8.234705305595632E+001  8.338285147233474E+001  8.443167862889943E+001  8.549369840702740E+001
8.656907674946982E+001  8.765798168628048E+001  8.876058336107120E+001  8.987705405759689E+001
9.100756822667529E+001  9.215230251344552E+001  9.331143578496878E+001  9.448514915817704E+001
9.567362602817279E+001  9.687705209688488E+001  9.809561540208507E+001  9.932950634676892E+001
1.005789177289069E+002
</PP_R>
<PP_RAB type="real" size="1141" columns="4">
8.141803263879611E-007  8.244214541687698E-007  8.347913994790912E-007  8.452917826439767E-007
8.559242443696606E-007  8.666904459999186E-007  8.775920697756596E-007  8.886308190977780E-007
8.998084187933129E-007  9.111266153849596E-007  9.225871773639616E-007  9.341918954664452E-007
9.459425829532234E-007  9.578410758931221E-007  9.698892334498732E-007  9.820889381726056E-007
9.944420962900031E-007  1.006950638008154E-006  1.019616517812150E-006  1.032441714771480E-006
1.045428232849263E-006  1.058578101215368E-006  1.071893374563483E-006  1.085376133432156E-006
1.099028484529894E-006  1.112852561064330E-006  1.126850523075549E-006  1.141024557773593E-006
1.155376879880221E-006  1.169909731974964E-006  1.184625384845528E-006  1.199526137842613E-006
1.214614319239191E-006  1.229892286594301E-006  1.245362427121427E-006  1.261027158061501E-006
1.276888927060602E-006  1.292950212552407E-006  1.309213524145449E-006  1.325681403015256E-006
1.342356422301404E-006  1.359241187509582E-006  1.376338336918706E-006  1.393650541993154E-006
1.411180507800194E-006  1.428930973432647E-006  1.446904712436881E-006  1.465104533246184E-006