Si    ONCVPSP-3.3.0  r_core=   1.60303   1.72197   1.91712
14.0000      4.0000      171102    zatom,zion,pspd
8   -1012   2     4   600     0    pspcod,pspxc,lmax,lloc,mmax,r2well
5.99000000  4.00000000  0.00000000    rchrg fchrg qchrg
2     2     2     0     0    nproj
1     1           extension_switch
0                         5.5659579770110D+00  8.5696624624846D-01
1  0.0000000000000D+00 -5.2059603017351D-09  1.2384263094189D-08
2  1.0000000000000D-02  3.2076315734494D-02 -1.0946676889925D-02
3  2.0000000000000D-02  6.3909649863373D-02 -2.1334775280769D-02
4  3.0000000000000D-02  9.5261552559967D-02 -3.0616528468175D-02
5  4.0000000000000D-02  1.2590255774309D-01 -3.8265603428340D-02
6  5.0000000000000D-02  1.5561647677626D-01 -4.3787346115608D-02
7  6.0000000000000D-02  1.8420445813736D-01 -4.6728469897637D-02
8  7.0000000000000D-02  2.1148874127863D-01 -4.6686016327767D-02
9  8.0000000000000D-02  2.3731603810331D-01 -4.3315429838528D-02
10  9.0000000000000D-02  2.6156048182729D-01 -3.6337603028027D-02
11  1.0000000000000D-01  2.8412609036775D-01 -2.5544766750292D-02
12  1.1000000000000D-01  3.0494869968112D-01 -1.0805118918028D-02
13  1.2000000000000D-01  3.2399733152230D-01  7.9338925475713D-03
14  1.3000000000000D-01  3.4127496976438D-01  3.0643694190946D-02
15  1.4000000000000D-01  3.5681872954057D-01  5.7214156413683D-02
16  1.5000000000000D-01  3.7069941387926D-01  8.7454620520102D-02
17  1.6000000000000D-01  3.8302046302282D-01  1.2109637113315D-01
18  1.7000000000000D-01  3.9391631207578D-01  1.5779651683341D-01
19  1.8000000000000D-01  4.0355018284105D-01  1.9714321758599D-01
20  1.9000000000000D-01  4.1211134550280D-01  2.3866217421769D-01
21  2.0000000000000D-01  4.1981189503482D-01  2.8182427328352D-01
22  2.1000000000000D-01  4.2688309569838D-01  3.2605426048931D-01
23  2.2000000000000D-01  4.3357135459868D-01  3.7074029775936D-01
24  2.3000000000000D-01  4.4013389186454D-01  4.1524424336345D-01
25  2.4000000000000D-01  4.4683418048813D-01  4.5891248151559D-01
26  2.5000000000000D-01  4.5393723311571D-01  5.0108711775410D-01
27  2.6000000000000D-01  4.6170481604167D-01  5.4111734938561D-01
28  2.7000000000000D-01  4.7039067227255D-01  5.7837081645275D-01
29  2.8000000000000D-01  4.8023583576458D-01  6.1224473813956D-01
30  2.9000000000000D-01  4.9146411778917D-01  6.4217664228024D-01
31  3.0000000000000D-01  5.0427784385942D-01  6.6765450165013D-01
32  3.1000000000000D-01  5.1885391579634D-01  6.8822609990290D-01
33  3.2000000000000D-01  5.3534026838415D-01  7.0350746223293D-01
34  3.3000000000000D-01  5.5385278374248D-01  7.1319020089082D-01
35  3.4000000000000D-01  5.7447271912962D-01  7.1704764332437D-01
36  3.5000000000000D-01  5.9724469550647D-01  7.1493963066813D-01
37  3.6000000000000D-01  6.2217528497008D-01  7.0681589624047D-01
38  3.7000000000000D-01  6.4923222526171D-01  6.9271795726438D-01
39  3.8000000000000D-01  6.7834427912775D-01  6.7277947782444D-01
40  3.9000000000000D-01  7.0940174553581D-01  6.4722508669371D-01
41  4.0000000000000D-01  7.4225761880200D-01  6.1636765968741D-01
42  4.1000000000000D-01  7.7672938074824D-01  5.8060410219363D-01
43  4.2000000000000D-01  8.1260140026670D-01  5.4040969305680D-01
44  4.3000000000000D-01  8.4962790429884D-01  4.9633107562160D-01
45  4.4000000000000D-01  8.8753647441608D-01  4.4897800506693D-01
46  4.5000000000000D-01  9.2603201408309D-01  3.9901398277484D-01
47  4.6000000000000D-01  9.6480112344828D-01  3.4714592802088D-01
48  4.7000000000000D-01  1.0035168112820D+00  2.9411305440131D-01
49  4.8000000000000D-01  1.0418434675947D+00  2.4067513283347D-01
50  4.9000000000000D-01  1.0794420156235D+00  1.8760033442243D-01
51  5.0000000000000D-01  1.1159751583640D+00  1.3565285477279D-01
52  5.1000000000000D-01  1.1511126327065D+00  8.5580526286779D-02
53  5.2000000000000D-01  1.1845363835599D+00  3.8102626525959D-02
54  5.3000000000000D-01  1.2159455711302D+00 -6.1019112259839D-03
55  5.4000000000000D-01  1.2450613267487D+00 -4.6405684444683D-02
56  5.5000000000000D-01  1.2716311763144D+00 -8.2243212929623D-02
57  5.6000000000000D-01  1.2954330554371D+00 -1.1312035552311D-01
58  5.7000000000000D-01  1.3162788466983D+00 -1.3862258717732D-01
59  5.8000000000000D-01  1.3340173769778D+00 -1.5842198954808D-01
60  5.9000000000000D-01  1.3485368213878D+00 -1.7228282880351D-01
61  6.0000000000000D-01  1.3597664699256D+00 -1.8006561714774D-01
62  6.1000000000000D-01  1.3676778232870D+00 -1.8172957919315D-01
63  6.2000000000000D-01  1.3722849952489D+00 -1.7733347044050D-01
64  6.3000000000000D-01  1.3736444104789D+00 -1.6703472239463D-01
65  6.4000000000000D-01  1.3718537982531D+00 -1.5108691651277D-01
66  6.5000000000000D-01  1.3670504943741D+00 -1.2983561729960D-01
67  6.6000000000000D-01  1.3594090751832D+00 -1.0371262245310D-01
68  6.7000000000000D-01  1.3491383588481D+00 -7.3228714809749D-02
69  6.8000000000000D-01  1.3364778199648D+00 -3.8965026645278D-02
70  6.9000000000000D-01  1.3216934736022D+00 -1.5631508442630D-03
71  7.0000000000000D-01  1.3050732941798D+00  3.8285844551198D-02
72  7.1000000000000D-01  1.2869222428245D+00  7.9853322336711D-02
73  7.2000000000000D-01  1.2675569839448D+00  1.2238570979939D-01
74  7.3000000000000D-01  1.2473003775539D+00  1.6511765345401D-01
75  7.4000000000000D-01  1.2264758382956D+00  2.0728547785690D-01
76  7.5000000000000D-01  1.2054016550687D+00  2.4814072459964D-01
77  7.6000000000000D-01  1.1843853665688D+00  2.8696354431472D-01
78  7.7000000000000D-01  1.1637182879165D+00  3.2307571500384D-01
79  7.8000000000000D-01  1.1436702818231D+00  3.5585306421357D-01
80  7.9000000000000D-01  1.1244848644742D+00  3.8473708049924D-01
81  8.0000000000000D-01  1.1063747315275D+00  4.0924551113830D-01
82  8.1000000000000D-01  1.0895177833899D+00  4.2898175801263D-01
83  8.2000000000000D-01  1.0740537213598D+00  4.4364290175799D-01
84  8.3000000000000D-01  1.0600812773958D+00  4.5302620540338D-01
85  8.4000000000000D-01  1.0476561303500D+00  4.5703397247132D-01
86  8.5000000000000D-01  1.0367895506271D+00  4.5567666051317D-01
87  8.6000000000000D-01  1.0274478035767D+00  4.4907417890429D-01
88  8.7000000000000D-01  1.0195523296756D+00  4.3745532898207D-01
89  8.8000000000000D-01  1.0129807069076D+00  4.2115537480965D-01
90  8.9000000000000D-01  1.0075683879018D+00  4.0061176350331D-01
91  9.0000000000000D-01  1.0031111915538D+00  3.7635804467935D-01
92  9.1000000000000D-01  9.9936851624054D-01  3.4901606865589D-01
93  9.2000000000000D-01  9.9606722954846D-01  3.1928657209471D-01
94  9.3000000000000D-01  9.9290617787321D-01  2.8793828730903D-01
95  9.4000000000000D-01  9.8956124850934D-01  2.5579573703433D-01
96  9.5000000000000D-01  9.8569090710604D-01  2.2372589963410D-01
97  9.6000000000000D-01  9.8094212479113D-01  1.9262395009341D-01
98  9.7000000000000D-01  9.7495660200655D-01  1.6339829938757D-01
99  9.8000000000000D-01  9.6737719025773D-01  1.3695516865382D-01
100  9.9000000000000D-01  9.5785440878808D-01  1.1418294449673D-01
101  1.0000000000000D+00  9.4605295041032D-01  9.5936568280143D-02
102  1.0100000000000D+00  9.3165806987314D-01  8.3022214186352D-02
103  1.0200000000000D+00  9.1438174884872D-01  7.6182509021851D-02
104  1.0300000000000D+00  8.9396853406549D-01  7.6082540815656D-02
105  1.0400000000000D+00  8.7020094937226D-01  8.3296892970363D-02
106  1.0500000000000D+00  8.4290438820262D-01  9.8297927055113D-02
107  1.0600000000000D+00  8.1195140005139D-01  1.2144552017451D-01
108  1.0700000000000D+00  7.7726529380570D-01  1.5297844071002D-01
109  1.0800000000000D+00  7.3882299040912D-01  1.9300752314010D-01
110  1.0900000000000D+00  6.9665706915292D-01  2.4151077435065D-01
111  1.1000000000000D+00  6.5085696349539D-01  2.9833051606678D-01
112  1.1100000000000D+00  6.0156927540951D-01  3.6317263669607D-01
113  1.1200000000000D+00  5.4899719171468D-01  4.3560799130513D-01
114  1.1300000000000D+00  4.9339899917735D-01  5.1507595658758D-01
115  1.1400000000000D+00  4.3508571004879D-01  6.0089011211245D-01
116  1.1500000000000D+00  3.7441782183897D-01  6.9224599015800D-01
117  1.1600000000000D+00  3.1180125232512D-01  7.8823079535629D-01
118  1.1700000000000D+00  2.4768250209854D-01  8.8783496838745D-01
119  1.1800000000000D+00  1.8254310947047D-01  9.8996543808521D-01
120  1.1900000000000D+00  1.1689347442311D-01  1.0934603780012D+00
121  1.2000000000000D+00  5.1266140463076D-02  1.1971052544533D+00
122  1.2100000000000D+00 -1.3791368567411D-02  1.2996499335579D+00
123  1.2200000000000D+00 -7.7724053815655D-02  1.3998266007948D+00
124  1.2300000000000D+00 -1.3997717512553D-01  1.4963682208440D+00
125  1.2400000000000D+00 -2.0000409842398D-01  1.5880272632259D+00
126  1.2500000000000D+00 -2.5727413863424D-01  1.6735944110875D+00
127  1.2600000000000D+00 -3.1128027685266D-01  1.7519169631440D+00
128  1.2700000000000D+00 -3.6154663449565D-01  1.8219166483670D+00
129  1.2800000000000D+00 -4.0763558783082D-01  1.8826065747354D+00
130  1.2900000000000D+00 -4.4915440914716D-01  1.9331070402578D+00
131  1.3000000000000D+00 -4.8576133354919D-01  1.9726599650022D+00
132  1.3100000000000D+00 -5.1717095023941D-01  2.0006417025853D+00
133  1.3200000000000D+00 -5.4315882902591D-01  2.0165740180662D+00
134  1.3300000000000D+00 -5.6356531362000D-01  2.0201330690464D+00
135  1.3400000000000D+00 -5.7829840509823D-01  2.0111562071808D+00
136  1.3500000000000D+00 -5.8733569005585D-01  1.9896464919034D+00
137  1.3600000000000D+00 -5.9072528406620D-01  1.9557748466282D+00
138  1.3700000000000D+00 -5.8858574681485D-01  1.9098797536380D+00
139  1.3800000000000D+00 -5.8110498490041D-01  1.8524645265008D+00
140  1.3900000000000D+00 -5.6853813784150D-01  1.7841921499072D+00
141  1.4000000000000D+00 -5.5120446567900D-01  1.7058777315117D+00
142  1.4100000000000D+00 -5.2948329855915D-01  1.6184787107292D+00
143  1.4200000000000D+00 -5.0380907077306D-01  1.5230828788363D+00
144  1.4300000000000D+00 -4.7466553369813D-01  1.4208944367567D+00
145  1.4400000000000D+00 -4.4257921365118D-01  1.3132182489166D+00
146  1.4500000000000D+00 -4.0811220304987D-01  1.2014425051045D+00
147  1.4600000000000D+00 -3.7185440436940D-01  1.0870200764719D+00
148  1.4700000000000D+00 -3.3441531215236D-01  9.7144877012186D-01
149  1.4800000000000D+00 -2.9641547643962D-01  8.5625082543253D-01
150  1.4900000000000D+00 -2.5847775146469D-01  7.4295190091181D-01
151  1.5000000000000D+00 -2.2121847003411D-01  6.3305988770115D-01
152  1.5100000000000D+00 -1.8523866061482D-01  5.2804382985432D-01
153  1.5200000000000D+00 -1.5111545057261D-01  4.2931329479026D-01
154  1.5300000000000D+00 -1.1939375762378D-01  3.3819843807514D-01
155  1.5400000000000D+00 -9.0578425870041D-02  2.5593113687934D-01
156  1.5500000000000D+00 -6.5136145188863D-02  1.8365337976373D-01
157  1.5600000000000D+00 -4.3458169164698D-02  1.2231532679566D-01
158  1.5700000000000D+00 -2.5793296733380D-02  7.2490000186183D-02
159  1.5800000000000D+00 -1.2596641871771D-02  3.5352895814767D-02
160  1.5900000000000D+00 -4.3753693367535D-03  1.2250227575606D-02
161  1.6000000000000D+00 -5.3519701686446D-04  1.4719253187308D-03
162  1.6100000000000D+00  4.2461591966273D-04 -1.2085188336470D-03
163  1.6200000000000D+00  1.0752811423264D-04 -3.0410589267331D-04
164  1.6300000000000D+00 -1.3208036182752D-04  3.7327699129052D-04
165  1.6400000000000D+00 -3.2269985607371D-05  9.1114848222627D-05
166  1.6500000000000D+00  2.3743302115777D-05 -6.7319512134405D-05
167  1.6600000000000D+00  5.1478253490705D-06 -1.4587511318854D-05
168  1.6700000000000D+00  5.0785518566823D-08 -6.5272372538398D-08
169  1.6800000000000D+00  1.0356154670094D-08 -1.3310305866076D-08
170  1.6900000000000D+00  0.0000000000000D+00  0.0000000000000D+00
171  1.7000000000000D+00  0.0000000000000D+00  0.0000000000000D+00
172  1.7100000000000D+00  0.0000000000000D+00  0.0000000000000D+00
173  1.7200000000000D+00  0.0000000000000D+00  0.0000000000000D+00
174  1.7300000000000D+00  0.0000000000000D+00  0.0000000000000D+00
175  1.7400000000000D+00  0.0000000000000D+00  0.0000000000000D+00
176  1.7500000000000D+00  0.0000000000000D+00  0.0000000000000D+00
177  1.7600000000000D+00  0.0000000000000D+00  0.0000000000000D+00
178  1.7700000000000D+00  0.0000000000000D+00  0.0000000000000D+00
179  1.7800000000000D+00  0.0000000000000D+00  0.0000000000000D+00
180  1.7900000000000D+00  0.0000000000000D+00  0.0000000000000D+00
181  1.8000000000000D+00  0.0000000000000D+00  0.0000000000000D+00
182  1.8100000000000D+00  0.0000000000000D+00  0.0000000000000D+00
183  1.8200000000000D+00  0.0000000000000D+00  0.0000000000000D+00
184  1.8300000000000D+00  0.0000000000000D+00  0.0000000000000D+00
185  1.8400000000000D+00  0.0000000000000D+00  0.0000000000000D+00
186  1.8500000000000D+00  0.0000000000000D+00  0.0000000000000D+00
187  1.8600000000000D+00  0.0000000000000D+00  0.0000000000000D+00
188  1.8700000000000D+00  0.0000000000000D+00  0.0000000000000D+00
189  1.8800000000000D+00  0.0000000000000D+00  0.0000000000000D+00
190  1.8900000000000D+00  0.0000000000000D+00  0.0000000000000D+00
191  1.9000000000000D+00  0.0000000000000D+00  0.0000000000000D+00
192  1.9100000000000D+00  0.0000000000000D+00  0.0000000000000D+00
193  1.9200000000000D+00  0.0000000000000D+00  0.0000000000000D+00
194  1.9300000000000D+00  0.0000000000000D+00  0.0000000000000D+00
195  1.9400000000000D+00  0.0000000000000D+00  0.0000000000000D+00
196  1.9500000000000D+00  0.0000000000000D+00  0.0000000000000D+00
197  1.9600000000000D+00  0.0000000000000D+00  0.0000000000000D+00
198  1.9700000000000D+00  0.0000000000000D+00  0.0000000000000D+00
199  1.9800000000000D+00  0.0000000000000D+00  0.0000000000000D+00
200  1.9900000000000D+00  0.0000000000000D+00  0.0000000000000D+00
201  2.0000000000000D+00  0.0000000000000D+00  0.0000000000000D+00
202  2.0100000000000D+00  0.0000000000000D+00  0.0000000000000D+00
203  2.0200000000000D+00  0.0000000000000D+00  0.0000000000000D+00
204  2.0300000000000D+00  0.0000000000000D+00  0.0000000000000D+00
205  2.0400000000000D+00  0.0000000000000D+00  0.0000000000000D+00
206  2.0500000000000D+00  0.0000000000000D+00  0.0000000000000D+00
207  2.0600000000000D+00  0.0000000000000D+00  0.0000000000000D+00
208  2.0700000000000D+00  0.0000000000000D+00  0.0000000000000D+00
209  2.0800000000000D+00  0.0000000000000D+00  0.0000000000000D+00
210  2.0900000000000D+00  0.0000000000000D+00  0.0000000000000D+00
211  2.1000000000000D+00  0.0000000000000D+00  0.0000000000000D+00
212  2.1100000000000D+00  0.0000000000000D+00  0.0000000000000D+00
213  2.1200000000000D+00  0.0000000000000D+00  0.0000000000000D+00
214  2.1300000000000D+00  0.0000000000000D+00  0.0000000000000D+00
215  2.1400000000000D+00  0.0000000000000D+00  0.0000000000000D+00
216  2.1500000000000D+00  0.0000000000000D+00  0.0000000000000D+00
217  2.1600000000000D+00  0.0000000000000D+00  0.0000000000000D+00
218  2.1700000000000D+00  0.0000000000000D+00  0.0000000000000D+00
219  2.1800000000000D+00  0.0000000000000D+00  0.0000000000000D+00
220  2.1900000000000D+00  0.0000000000000D+00  0.0000000000000D+00
221  2.2000000000000D+00  0.0000000000000D+00  0.0000000000000D+00
222  2.2100000000000D+00  0.0000000000000D+00  0.0000000000000D+00
223  2.2200000000000D+00  0.0000000000000D+00  0.0000000000000D+00
224  2.2300000000000D+00  0.0000000000000D+00  0.0000000000000D+00
225  2.2400000000000D+00  0.0000000000000D+00  0.0000000000000D+00
226  2.2500000000000D+00  0.0000000000000D+00  0.0000000000000D+00
227  2.2600000000000D+00  0.0000000000000D+00  0.0000000000000D+00
228  2.2700000000000D+00  0.0000000000000D+00  0.0000000000000D+00
229  2.2800000000000D+00  0.0000000000000D+00  0.0000000000000D+00
230  2.2900000000000D+00  0.0000000000000D+00  0.0000000000000D+00
231  2.3000000000000D+00  0.0000000000000D+00  0.0000000000000D+00
232  2.3100000000000D+00  0.0000000000000D+00  0.0000000000000D+00
233  2.3200000000000D+00  0.0000000000000D+00  0.0000000000000D+00
234  2.3300000000000D+00  0.0000000000000D+00  0.0000000000000D+00
235  2.3400000000000D+00  0.0000000000000D+00  0.0000000000000D+00
236  2.3500000000000D+00  0.0000000000000D+00  0.0000000000000D+00
237  2.3600000000000D+00  0.0000000000000D+00  0.0000000000000D+00
238  2.3700000000000D+00  0.0000000000000D+00  0.0000000000000D+00
239  2.3800000000000D+00  0.0000000000000D+00  0.0000000000000D+00
240  2.3900000000000D+00  0.0000000000000D+00  0.0000000000000D+00
241  2.4000000000000D+00  0.0000000000000D+00  0.0000000000000D+00
242  2.4100000000000D+00  0.0000000000000D+00  0.0000000000000D+00
243  2.4200000000000D+00  0.0000000000000D+00  0.0000000000000D+00
244  2.4300000000000D+00  0.0000000000000D+00  0.0000000000000D+00
245  2.4400000000000D+00  0.0000000000000D+00  0.0000000000000D+00
246  2.4500000000000D+00  0.0000000000000D+00  0.0000000000000D+00
247  2.4600000000000D+00  0.0000000000000D+00  0.0000000000000D+00
248  2.4700000000000D+00  0.0000000000000D+00  0.0000000000000D+00
249  2.4800000000000D+00  0.0000000000000D+00  0.0000000000000D+00
250  2.4900000000000D+00  0.0000000000000D+00  0.0000000000000D+00
251  2.5000000000000D+00  0.0000000000000D+00  0.0000000000000D+00
252  2.5100000000000D+00  0.0000000000000D+00  0.0000000000000D+00
253  2.5200000000000D+00  0.0000000000000D+00  0.0000000000000D+00
254  2.5300000000000D+00  0.0000000000000D+00  0.0000000000000D+00
255  2.5400000000000D+00  0.0000000000000D+00  0.0000000000000D+00
256  2.5500000000000D+00  0.0000000000000D+00  0.0000000000000D+00
257  2.5600000000000D+00  0.0000000000000D+00  0.0000000000000D+00
258  2.5700000000000D+00  0.0000000000000D+00  0.0000000000000D+00
259  2.5800000000000D+00  0.0000000000000D+00  0.0000000000000D+00
260  2.5900000000000D+00  0.0000000000000D+00  0.0000000000000D+00
261  2.6000000000000D+00  0.0000000000000D+00  0.0000000000000D+00
262  2.6100000000000D+00  0.0000000000000D+00  0.0000000000000D+00
263  2.6200000000000D+00  0.0000000000000D+00  0.0000000000000D+00
264  2.6300000000000D+00  0.0000000000000D+00  0.0000000000000D+00
265  2.6400000000000D+00  0.0000000000000D+00  0.0000000000000D+00
266  2.6500000000000D+00  0.0000000000000D+00  0.0000000000000D+00
267  2.6600000000000D+00  0.0000000000000D+00  0.0000000000000D+00
268  2.6700000000000D+00  0.0000000000000D+00  0.0000000000000D+00
269  2.6800000000000D+00  0.0000000000000D+00  0.0000000000000D+00
270  2.6900000000000D+00  0.0000000000000D+00  0.0000000000000D+00
271  2.7000000000000D+00  0.0000000000000D+00  0.0000000000000D+00
272  2.7100000000000D+00  0.0000000000000D+00  0.0000000000000D+00
273  2.7200000000000D+00  0.0000000000000D+00  0.0000000000000D+00
274  2.7300000000000D+00  0.0000000000000D+00  0.0000000000000D+00
275  2.7400000000000D+00  0.0000000000000D+00  0.0000000000000D+00
276  2.7500000000000D+00  0.0000000000000D+00  0.0000000000000D+00
277  2.7600000000000D+00  0.0000000000000D+00  0.0000000000000D+00
278  2.7700000000000D+00  0.0000000000000D+00  0.0000000000000D+00
279  2.7800000000000D+00  0.0000000000000D+00  0.0000000000000D+00
280  2.7900000000000D+00  0.0000000000000D+00  0.0000000000000D+00
281  2.8000000000000D+00  0.0000000000000D+00  0.0000000000000D+00
282  2.8100000000000D+00  0.0000000000000D+00  0.0000000000000D+00
283  2.8200000000000D+00  0.0000000000000D+00  0.0000000000000D+00
284  2.8300000000000D+00  0.0000000000000D+00  0.0000000000000D+00
285  2.8400000000000D+00  0.0000000000000D+00  0.0000000000000D+00
286  2.8500000000000D+00  0.0000000000000D+00  0.0000000000000D+00
287  2.8600000000000D+00  0.0000000000000D+00  0.0000000000000D+00
288  2.8700000000000D+00  0.0000000000000D+00  0.0000000000000D+00
289  2.8800000000000D+00  0.0000000000000D+00  0.0000000000000D+00
290  2.8900000000000D+00  0.0000000000000D+00  0.0000000000000D+00
291  2.9000000000000D+00  0.0000000000000D+00  0.0000000000000D+00
292  2.9100000000000D+00  0.0000000000000D+00  0.0000000000000D+00
293  2.9200000000000D+00  0.0000000000000D+00  0.0000000000000D+00
294  2.9300000000000D+00  0.0000000000000D+00  0.0000000000000D+00
295  2.9400000000000D+00  0.0000000000000D+00  0.0000000000000D+00
296  2.9500000000000D+00  0.0000000000000D+00  0.0000000000000D+00
297  2.9600000000000D+00  0.0000000000000D+00  0.0000000000000D+00
298  2.9700000000000D+00  0.0000000000000D+00  0.0000000000000D+00
299  2.9800000000000D+00  0.0000000000000D+00  0.0000000000000D+00
300  2.9900000000000D+00  0.0000000000000D+00  0.0000000000000D+00
301  3.0000000000000D+00  0.0000000000000D+00  0.0000000000000D+00
302  3.0100000000000D+00  0.0000000000000D+00  0.0000000000000D+00
303  3.0200000000000D+00  0.0000000000000D+00  0.0000000000000D+00
304  3.0300000000000D+00  0.0000000000000D+00  0.0000000000000D+00
305  3.0400000000000D+00  0.0000000000000D+00  0.0000000000000D+00
306  3.0500000000000D+00  0.0000000000000D+00  0.0000000000000D+00
307  3.0600000000000D+00  0.0000000000000D+00  0.0000000000000D+00
308  3.0700000000000D+00  0.0000000000000D+00  0.0000000000000D+00
309  3.0800000000000D+00  0.0000000000000D+00  0.0000000000000D+00
310  3.0900000000000D+00  0.0000000000000D+00  0.0000000000000D+00
311  3.1000000000000D+00  0.0000000000000D+00  0.0000000000000D+00
312  3.1100000000000D+00  0.0000000000000D+00  0.0000000000000D+00
313  3.1200000000000D+00  0.0000000000000D+00  0.0000000000000D+00
314  3.1300000000000D+00  0.0000000000000D+00  0.0000000000000D+00
315  3.1400000000000D+00  0.0000000000000D+00  0.0000000000000D+00
316  3.1500000000000D+00  0.0000000000000D+00  0.0000000000000D+00
317  3.1600000000000D+00  0.0000000000000D+00  0.0000000000000D+00
318  3.1700000000000D+00  0.0000000000000D+00  0.0000000000000D+00
319  3.1800000000000D+00  0.0000000000000D+00  0.0000000000000D+00
320  3.1900000000000D+00  0.0000000000000D+00  0.0000000000000D+00
321  3.2000000000000D+00  0.0000000000000D+00  0.0000000000000D+00
322  3.2100000000000D+00  0.0000000000000D+00  0.0000000000000D+00
323  3.2200000000000D+00  0.0000000000000D+00  0.0000000000000D+00
324  3.2300000000000D+00  0.0000000000000D+00  0.0000000000000D+00
325  3.2400000000000D+00  0.0000000000000D+00  0.0000000000000D+00
326  3.2500000000000D+00  0.0000000000000D+00  0.0000000000000D+00
327  3.2600000000000D+00  0.0000000000000D+00  0.0000000000000D+00
328  3.2700000000000D+00  0.0000000000000D+00  0.0000000000000D+00
329  3.2800000000000D+00  0.0000000000000D+00  0.0000000000000D+00
330  3.2900000000000D+00  0.0000000000000D+00  0.0000000000000D+00
331  3.3000000000000D+00  0.0000000000000D+00  0.0000000000000D+00
332  3.3100000000000D+00  0.0000000000000D+00  0.0000000000000D+00
333  3.3200000000000D+00  0.0000000000000D+00  0.0000000000000D+00
334  3.3300000000000D+00  0.0000000000000D+00  0.0000000000000D+00
335  3.3400000000000D+00  0.0000000000000D+00  0.0000000000000D+00
336  3.3500000000000D+00  0.0000000000000D+00  0.0000000000000D+00
337  3.3600000000000D+00  0.0000000000000D+00  0.0000000000000D+00
338  3.3700000000000D+00  0.0000000000000D+00  0.0000000000000D+00
339  3.3800000000000D+00  0.0000000000000D+00  0.0000000000000D+00
340  3.3900000000000D+00  0.0000000000000D+00  0.0000000000000D+00
341  3.4000000000000D+00  0.0000000000000D+00  0.0000000000000D+00
342  3.4100000000000D+00  0.0000000000000D+00  0.0000000000000D+00
343  3.4200000000000D+00  0.0000000000000D+00  0.0000000000000D+00
344  3.4300000000000D+00  0.0000000000000D+00  0.0000000000000D+00
345  3.4400000000000D+00  0.0000000000000D+00  0.0000000000000D+00
346  3.4500000000000D+00  0.0000000000000D+00  0.0000000000000D+00
347  3.4600000000000D+00  0.0000000000000D+00  0.0000000000000D+00
348  3.4700000000000D+00  0.0000000000000D+00  0.0000000000000D+00
349  3.4800000000000D+00  0.0000000000000D+00  0.0000000000000D+00
350  3.4900000000000D+00  0.0000000000000D+00  0.0000000000000D+00
351  3.5000000000000D+00  0.0000000000000D+00  0.0000000000000D+00
352  3.5100000000000D+00  0.0000000000000D+00  0.0000000000000D+00
353  3.5200000000000D+00  0.0000000000000D+00  0.0000000000000D+00
354  3.5300000000000D+00  0.0000000000000D+00  0.0000000000000D+00
355  3.5400000000000D+00  0.0000000000000D+00  0.0000000000000D+00
356  3.5500000000000D+00  0.0000000000000D+00  0.0000000000000D+00
357  3.5600000000000D+00  0.0000000000000D+00  0.0000000000000D+00
358  3.5700000000000D+00  0.0000000000000D+00  0.0000000000000D+00
359  3.5800000000000D+00  0.0000000000000D+00  0.0000000000000D+00
360  3.5900000000000D+00  0.0000000000000D+00  0.0000000000000D+00
361  3.6000000000000D+00  0.0000000000000D+00  0.0000000000000D+00
362  3.6100000000000D+00  0.0000000000000D+00  0.0000000000000D+00
363  3.6200000000000D+00  0.0000000000000D+00  0.0000000000000D+00
364  3.6300000000000D+00  0.0000000000000D+00  0.0000000000000D+00
365  3.6400000000000D+00  0.0000000000000D+00  0.0000000000000D+00
366  3.6500000000000D+00  0.0000000000000D+00  0.0000000000000D+00
367  3.6600000000000D+00  0.0000000000000D+00  0.0000000000000D+00
368  3.6700000000000D+00  0.0000000000000D+00  0.0000000000000D+00
369  3.6800000000000D+00  0.0000000000000D+00  0.0000000000000D+00
370  3.6900000000000D+00  0.0000000000000D+00  0.0000000000000D+00
371  3.7000000000000D+00  0.0000000000000D+00  0.0000000000000D+00
372  3.7100000000000D+00  0.0000000000000D+00  0.0000000000000D+00
373  3.7200000000000D+00  0.0000000000000D+00  0.0000000000000D+00
374  3.7300000000000D+00  0.0000000000000D+00  0.0000000000000D+00
375  3.7400000000000D+00  0.0000000000000D+00  0.0000000000000D+00
376  3.7500000000000D+00  0.0000000000000D+00  0.0000000000000D+00
377  3.7600000000000D+00  0.0000000000000D+00  0.0000000000000D+00
378  3.7700000000000D+00  0.0000000000000D+00  0.0000000000000D+00
379  3.7800000000000D+00  0.0000000000000D+00  0.0000000000000D+00
380  3.7900000000000D+00  0.0000000000000D+00  0.0000000000000D+00
381  3.8000000000000D+00  0.0000000000000D+00  0.0000000000000D+00
382  3.8100000000000D+00  0.0000000000000D+00  0.0000000000000D+00
383  3.8200000000000D+00  0.0000000000000D+00  0.0000000000000D+00
384  3.8300000000000D+00  0.0000000000000D+00  0.0000000000000D+00
385  3.8400000000000D+00  0.0000000000000D+00  0.0000000000000D+00
386  3.8500000000000D+00  0.0000000000000D+00  0.0000000000000D+00
387  3.8600000000000D+00  0.0000000000000D+00  0.0000000000000D+00
388  3.8700000000000D+00  0.0000000000000D+00  0.0000000000000D+00
389  3.8800000000000D+00  0.0000000000000D+00  0.0000000000000D+00
390  3.8900000000000D+00  0.0000000000000D+00  0.0000000000000D+00
391  3.9000000000000D+00  0.0000000000000D+00  0.0000000000000D+00
392  3.9100000000000D+00  0.0000000000000D+00  0.0000000000000D+00
393  3.9200000000000D+00  0.0000000000000D+00  0.0000000000000D+00
394  3.9300000000000D+00  0.0000000000000D+00  0.0000000000000D+00
395  3.9400000000000D+00  0.0000000000000D+00  0.0000000000000D+00
396  3.9500000000000D+00  0.0000000000000D+00  0.0000000000000D+00
397  3.9600000000000D+00  0.0000000000000D+00  0.0000000000000D+00
398  3.9700000000000D+00  0.0000000000000D+00  0.0000000000000D+00
399  3.9800000000000D+00  0.0000000000000D+00  0.0000000000000D+00
400  3.9900000000000D+00  0.0000000000000D+00  0.0000000000000D+00
401  4.0000000000000D+00  0.0000000000000D+00  0.0000000000000D+00
402  4.0100000000000D+00  0.0000000000000D+00  0.0000000000000D+00
403  4.0200000000000D+00  0.0000000000000D+00  0.0000000000000D+00
404  4.0300000000000D+00  0.0000000000000D+00  0.0000000000000D+00
405  4.0400000000000D+00  0.0000000000000D+00  0.0000000000000D+00
406  4.0500000000000D+00  0.0000000000000D+00  0.0000000000000D+00
407  4.0600000000000D+00  0.0000000000000D+00  0.0000000000000D+00
408  4.0700000000000D+00  0.0000000000000D+00  0.0000000000000D+00
409  4.0800000000000D+00  0.0000000000000D+00  0.0000000000000D+00
410  4.0900000000000D+00  0.0000000000000D+00  0.0000000000000D+00
411  4.1000000000000D+00  0.0000000000000D+00  0.0000000000000D+00
412  4.1100000000000D+00  0.0000000000000D+00  0.0000000000000D+00
413  4.1200000000000D+00  0.0000000000000D+00  0.0000000000000D+00
414  4.1300000000000D+00  0.0000000000000D+00  0.0000000000000D+00
415  4.1400000000000D+00  0.0000000000000D+00  0.0000000000000D+00
416  4.1500000000000D+00  0.0000000000000D+00  0.0000000000000D+00
417  4.1600000000000D+00  0.0000000000000D+00  0.0000000000000D+00
418  4.1700000000000D+00  0.0000000000000D+00  0.0000000000000D+00
419  4.1800000000000D+00  0.0000000000000D+00  0.0000000000000D+00
420  4.1900000000000D+00  0.0000000000000D+00  0.0000000000000D+00
421  4.2000000000000D+00  0.0000000000000D+00  0.0000000000000D+00
422  4.2100000000000D+00  0.0000000000000D+00  0.0000000000000D+00
423  4.2200000000000D+00  0.0000000000000D+00  0.0000000000000D+00
424  4.2300000000000D+00  0.0000000000000D+00  0.0000000000000D+00
425  4.2400000000000D+00  0.0000000000000D+00  0.0000000000000D+00
426  4.2500000000000D+00  0.0000000000000D+00  0.0000000000000D+00
427  4.2600000000000D+00  0.0000000000000D+00  0.0000000000000D+00
428  4.2700000000000D+00  0.0000000000000D+00  0.0000000000000D+00
429  4.2800000000000D+00  0.0000000000000D+00  0.0000000000000D+00
430  4.2900000000000D+00  0.0000000000000D+00  0.0000000000000D+00
431  4.3000000000000D+00  0.0000000000000D+00  0.0000000000000D+00
432  4.3100000000000D+00  0.0000000000000D+00  0.0000000000000D+00
433  4.3200000000000D+00  0.0000000000000D+00  0.0000000000000D+00
434  4.3300000000000D+00  0.0000000000000D+00  0.0000000000000D+00
435  4.3400000000000D+00  0.0000000000000D+00  0.0000000000000D+00
436  4.3500000000000D+00  0.0000000000000D+00  0.0000000000000D+00
437  4.3600000000000D+00  0.0000000000000D+00  0.0000000000000D+00
438  4.3700000000000D+00  0.0000000000000D+00  0.0000000000000D+00
439  4.3800000000000D+00  0.0000000000000D+00  0.0000000000000D+00
440  4.3900000000000D+00  0.0000000000000D+00  0.0000000000000D+00
441  4.4000000000000D+00  0.0000000000000D+00  0.0000000000000D+00
442  4.4100000000000D+00  0.0000000000000D+00  0.0000000000000D+00
443  4.4200000000000D+00  0.0000000000000D+00  0.0000000000000D+00