
  ___ ___ ___ _ _ _  
 |   |   |_  | | | | 
 | | | | | . | | | | 
 |__ |  _|___|_____|  20.10.0
 |___|_|             

User:   mfh@mfh-desktop
Date:   Mon Nov  2 09:50:29 2020
Arch:   x86_64
Pid:    14104
Python: 3.8.6
gpaw:   /home/mfh/.local/lib/python3.8/site-packages/gpaw
_gpaw:  /home/mfh/.local/lib/python3.8/site-packages/
        _gpaw.cpython-38-x86_64-linux-gnu.so
ase:    /home/mfh/.local/lib/python3.8/site-packages/ase (version 3.20.1)
numpy:  /usr/lib/python3/dist-packages/numpy (version 1.19.2)
scipy:  /usr/lib/python3/dist-packages/scipy (version 1.5.2)
libxc:  4.3.4
units:  Angstrom and eV
cores: 1
OMP_NUM_THREADS: 1

Input parameters:
  kpts: [1 1 1]
  mode: {ecut: 272.11386020632835,
         gammacentered: False,
         name: pw}
  xc: PBE

System changes: positions, numbers, cell, pbc, initial_charges, initial_magmoms 

Initialize ...

Na-setup:
  name: Sodium
  id: d7ecbc49209718622bcbe287195dca2a
  Z: 11.0
  valence: 7
  core: 4
  charge: 0.0
  file: /home/mfh/.local/share/gpaw-setups/gpaw-setups-0.9.20000/Na.PBE.gz
  compensation charges: gauss, rc=0.37, lmax=2
  cutoffs: 2.17(filt), 2.59(core),
  valence states:
                energy  radius
    3s(1.00)    -2.744   1.201
    2p(6.00)   -28.672   1.217
    3p(0.00)    -0.743   1.217
    *s          24.468   1.201
    *d           0.000   1.238

  Using partial waves for Na as LCAO basis

Cl-setup:
  name: Chlorine
  id: 726897f06f34e53cf8e33b5885a02604
  Z: 17.0
  valence: 7
  core: 10
  charge: 0.0
  file: /home/mfh/.local/share/gpaw-setups/gpaw-setups-0.9.20000/Cl.PBE.gz
  compensation charges: gauss, rc=0.25, lmax=2
  cutoffs: 1.40(filt), 1.49(core),
  valence states:
                energy  radius
    3s(2.00)   -20.689   0.794
    3p(5.00)    -8.594   0.794
    *s           6.523   0.794
    *p          18.617   0.794
    *d           0.000   0.794

  Using partial waves for Cl as LCAO basis

Reference energy: -16973.559893

Spin-paired calculation

Convergence criteria:
  Maximum total energy change: 0.0005 eV / electron
  Maximum integral of absolute density change: 0.0001 electrons
  Maximum integral of absolute eigenstate change: 4e-08 eV^2
  Maximum number of iterations: 333

Symmetries present (total): 8

  ( 1  0  0)  ( 1  0  0)  ( 1  0  0)  ( 1  0  0)  ( 1  0  0)  ( 1  0  0)
  ( 0  1  0)  ( 0  1  0)  ( 0  0  1)  ( 0  0  1)  ( 0  0 -1)  ( 0  0 -1)
  ( 0  0  1)  ( 0  0 -1)  ( 0  1  0)  ( 0 -1  0)  ( 0  1  0)  ( 0 -1  0)

  ( 1  0  0)  ( 1  0  0)
  ( 0 -1  0)  ( 0 -1  0)
  ( 0  0  1)  ( 0  0 -1)

1 k-point (Gamma)
1 k-point in the irreducible part of the Brillouin zone
       k-points in crystal coordinates                weights
   0:     0.00000000    0.00000000    0.00000000          1/1

Wave functions: Plane wave expansion
  Cutoff energy: 272.114 eV
  Number of coefficients: 3013 (reduced to 1507)
  Pulay-stress correction: 0.000000 eV/Ang^3 (de/decut=0.000000)
  Using Numpy's FFT
  ScaLapack parameters: grid=1x1, blocksize=None
  Wavefunction extrapolation:
    Improved wavefunction reuse through dual PAW basis 

  Fermi-Dirac: width=0.1000 eV

Eigensolver
   Davidson(niter=2, smin=None, normalize=True) 

Densities:
  Coarse grid: 42*21*21 grid
  Fine grid: 84*42*42 grid
  Total Charge: 0.000000 

Density mixing:
  Method: separate
  Backend: pulay
  Linear mixing parameter: 0.05
  Mixing with 5 old densities
  Damping of long wave oscillations: 50 

Hamiltonian:
  XC and Coulomb potentials evaluated on a 84*42*42 grid
  Using the PBE Exchange-Correlation functional
 

XC parameters: PBE with 2 nearest neighbor stencil

Memory estimate:
  Process memory now: 96.75 MiB
  Calculator: 12.84 MiB
    Density: 9.10 MiB
      Arrays: 3.67 MiB
      Localized functions: 4.01 MiB
      Mixer: 1.41 MiB
    Hamiltonian: 2.50 MiB
      Arrays: 2.40 MiB
      XC: 0.00 MiB
      Poisson: 0.00 MiB
      vbar: 0.10 MiB
    Wavefunctions: 1.24 MiB
      Arrays psit_nG: 0.25 MiB
      Eigensolver: 0.38 MiB
      Projections: 0.00 MiB
      Projectors: 0.22 MiB
      PW-descriptor: 0.39 MiB

Total number of cores used: 1

Number of atoms: 2
Number of atomic orbitals: 11
Number of bands in calculation: 11
Number of valence electrons: 14
Bands to converge: occupied

... initialized

Initializing position-dependent things.

Density initialized from atomic densities
Creating initial wave functions:
  11 bands from LCAO basis set

    .-------------------------.  
   /|                         |  
  / |                         |  
 *  |                         |  
 |  |                         |  
 |  |                         |  
 |  |                         |  
 |  .-------------------------.  
 | /                         /   
 |/                         /    
 *-Cl--------------------Na*     

Positions:
   0 Na    -0.661472    0.000000    0.000000    ( 0.0000,  0.0000,  0.0000)
   1 Cl     0.661472    0.000000    0.000000    ( 0.0000,  0.0000,  0.0000)

Unit cell:
           periodic     x           y           z      points  spacing
  1. axis:    yes   10.583544    0.000000    0.000000    42     0.2520
  2. axis:    yes    0.000000    5.291772    0.000000    21     0.2520
  3. axis:    yes    0.000000    0.000000    5.291772    21     0.2520

  Lengths:  10.583544   5.291772   5.291772
  Angles:   90.000000  90.000000  90.000000

Effective grid spacing dv^(1/3) = 0.2520

                     log10-error:    total        iterations:
           time      wfs    density  energy       poisson
iter:   1  09:50:29                  12.204725           
iter:   2  09:50:30  -0.34  -0.92    12.892418           
iter:   3  09:50:30  -0.80  -0.96    13.847656           
iter:   4  09:50:30  -1.60  -1.30    13.879545           
iter:   5  09:50:30  -1.68  -1.33    14.057542           
iter:   6  09:50:30  -1.86  -1.67    14.076038           
iter:   7  09:50:30  -2.65  -1.95    14.077961           
iter:   8  09:50:31  -3.19  -2.11    14.078207           
iter:   9  09:50:31  -2.70  -2.13    14.078474           
iter:  10  09:50:31  -3.69  -2.55    14.079597           
iter:  11  09:50:31  -4.22  -2.78    14.079807           
iter:  12  09:50:31  -4.05  -2.77    14.079640           
iter:  13  09:50:31  -4.75  -3.26    14.079631           
iter:  14  09:50:32  -5.07  -3.72    14.079623           
iter:  15  09:50:32  -5.58  -3.66    14.079627           
iter:  16  09:50:32  -5.73  -3.70    14.079634           
iter:  17  09:50:32  -6.27  -3.80    14.079636           
iter:  18  09:50:32  -6.52  -3.80    14.079639           
iter:  19  09:50:32  -6.56  -3.91    14.079643           
iter:  20  09:50:32  -7.07  -4.08    14.079644           
iter:  21  09:50:33  -7.07  -4.13    14.079643           
iter:  22  09:50:33  -6.96  -4.20    14.079644           
iter:  23  09:50:33  -7.96  -4.74    14.079644           

Converged after 23 iterations.

Dipole moment: (-1.680941, -0.000000, -0.000000) |e|*Ang

Energy contributions relative to reference atoms: (reference = -16973.559893)

Kinetic:        +85.115638
Potential:      -58.577736
External:        +0.000000
XC:             -12.587685
Entropy (-ST):   -0.000061
Local:           +0.129457
--------------------------
Free energy:    +14.079613
Extrapolated:   +14.079644

 Band  Eigenvalues  Occupancy
    0    -34.68282    2.00000
    1    -30.82203    2.00000
    2    -30.82203    2.00000
    3    -16.76067    2.00000
    4     -6.96554    2.00000
    5     -6.96553    2.00000
    6     -3.83482    1.99998
    7     -1.57667    0.00002
    8      0.68048    0.00000
    9      1.23890    0.00000
   10      2.97836    0.00000

Fermi level: -2.70575

Gap: 2.258 eV
Transition (v -> c):
  (s=0, k=0, n=6, [0.00, 0.00, 0.00]) -> (s=0, k=0, n=7, [0.00, 0.00, 0.00])
Writing to nacl.gpw (mode='')

Timing:                              incl.     excl.
-----------------------------------------------------------
Hamiltonian:                         0.110     0.001   0.0% |
 Atomic:                             0.054     0.000   0.0% |
  XC Correction:                     0.053     0.053   1.2% |
 Calculate atomic Hamiltonians:      0.002     0.002   0.1% |
 Communicate:                        0.000     0.000   0.0% |
 Initialize Hamiltonian:             0.000     0.000   0.0% |
 Poisson:                            0.000     0.000   0.0% |
 XC 3D grid:                         0.053     0.053   1.2% |
LCAO initialization:                 0.079     0.045   1.0% |
 LCAO eigensolver:                   0.010     0.000   0.0% |
  Calculate projections:             0.000     0.000   0.0% |
  DenseAtomicCorrection:             0.000     0.000   0.0% |
  Distribute overlap matrix:         0.000     0.000   0.0% |
  Orbital Layouts:                   0.005     0.005   0.1% |
  Potential matrix:                  0.005     0.005   0.1% |
 LCAO to grid:                       0.009     0.009   0.2% |
 Set positions (LCAO WFS):           0.014     0.001   0.0% |
  Basic WFS set positions:           0.000     0.000   0.0% |
  Basis functions set positions:     0.000     0.000   0.0% |
  P tci:                             0.002     0.002   0.0% |
  ST tci:                            0.002     0.002   0.0% |
  mktci:                             0.009     0.009   0.2% |
PWDescriptor:                        0.001     0.001   0.0% |
SCF-cycle:                           3.684     0.008   0.2% |
 Davidson:                           0.851     0.059   1.3% ||
  Apply H:                           0.185     0.182   4.0% |-|
   HMM T:                            0.002     0.002   0.1% |
  Subspace diag:                     0.198     0.001   0.0% |
   calc_h_matrix:                    0.190     0.005   0.1% |
    Apply H:                         0.185     0.182   4.0% |-|
     HMM T:                          0.003     0.003   0.1% |
   diagonalize:                      0.003     0.003   0.1% |
   rotate_psi:                       0.003     0.003   0.1% |
  calc. matrices:                    0.398     0.029   0.6% |
   Apply H:                          0.369     0.364   8.1% |--|
    HMM T:                           0.005     0.005   0.1% |
  diagonalize:                       0.007     0.007   0.2% |
  rotate_psi:                        0.005     0.005   0.1% |
 Density:                            0.399     0.000   0.0% |
  Atomic density matrices:           0.007     0.007   0.2% |
  Mix:                               0.147     0.147   3.3% ||
  Multipole moments:                 0.002     0.002   0.0% |
  Pseudo density:                    0.243     0.099   2.2% ||
   Symmetrize density:               0.144     0.144   3.2% ||
 Hamiltonian:                        2.421     0.016   0.3% |
  Atomic:                            1.176     0.007   0.2% |
   XC Correction:                    1.169     1.169  25.9% |---------|
  Calculate atomic Hamiltonians:     0.054     0.054   1.2% |
  Communicate:                       0.000     0.000   0.0% |
  Poisson:                           0.009     0.009   0.2% |
  XC 3D grid:                        1.166     1.166  25.8% |---------|
 Orthonormalize:                     0.005     0.000   0.0% |
  calc_s_matrix:                     0.000     0.000   0.0% |
  inverse-cholesky:                  0.004     0.004   0.1% |
  projections:                       0.000     0.000   0.0% |
  rotate_psi_s:                      0.000     0.000   0.0% |
Set symmetry:                        0.006     0.006   0.1% |
Other:                               0.633     0.633  14.0% |-----|
-----------------------------------------------------------
Total:                                         4.512 100.0%

Date: Mon Nov  2 09:50:33 2020
