
  ___ ___ ___ _ _ _  
 |   |   |_  | | | | 
 | | | | | . | | | | 
 |__ |  _|___|_____|  21.1.0
 |___|_|             

User:   mfh@lamprohiza
Date:   Sun Aug  8 17:38:31 2021
Arch:   x86_64
Pid:    2270375
Python: 3.9.2
gpaw:   /home/mfh/.local/lib/python3.9/site-packages/gpaw
_gpaw:  /home/mfh/.local/lib/python3.9/site-packages/
        _gpaw.cpython-39-x86_64-linux-gnu.so
ase:    /home/mfh/.local/lib/python3.9/site-packages/ase (version 3.22.0)
numpy:  /home/mfh/.local/lib/python3.9/site-packages/numpy (version 1.20.1)
scipy:  /usr/lib/python3/dist-packages/scipy (version 1.6.0)
libxc:  4.3.4
units:  Angstrom and eV
cores: 1
OpenMP: False
OMP_NUM_THREADS: 1

Input parameters:
  kpts: [1 1 1]
  mode: {ecut: 272.11386020632835,
         gammacentered: False,
         name: pw}
  xc: PBE

System changes: positions, numbers, cell, pbc, initial_charges, initial_magmoms 

Initialize ...

Na-setup:
  name: Sodium
  id: d7ecbc49209718622bcbe287195dca2a
  Z: 11.0
  valence: 7
  core: 4
  charge: 0.0
  file: /home/mfh/.gpaw/pseudos/gpaw-setups-0.9.20000/Na.PBE.gz
  compensation charges: gauss, rc=0.37, lmax=2
  cutoffs: 2.17(filt), 2.59(core),
  valence states:
                energy  radius
    3s(1.00)    -2.744   1.201
    2p(6.00)   -28.672   1.217
    3p(0.00)    -0.743   1.217
    *s          24.468   1.201
    *d           0.000   1.238

  Using partial waves for Na as LCAO basis

Cl-setup:
  name: Chlorine
  id: 726897f06f34e53cf8e33b5885a02604
  Z: 17.0
  valence: 7
  core: 10
  charge: 0.0
  file: /home/mfh/.gpaw/pseudos/gpaw-setups-0.9.20000/Cl.PBE.gz
  compensation charges: gauss, rc=0.25, lmax=2
  cutoffs: 1.40(filt), 1.49(core),
  valence states:
                energy  radius
    3s(2.00)   -20.689   0.794
    3p(5.00)    -8.594   0.794
    *s           6.523   0.794
    *p          18.617   0.794
    *d           0.000   0.794

  Using partial waves for Cl as LCAO basis

Reference energy: -16973.559893

Spin-paired calculation

Convergence criteria:
  Maximum total energy change: 0.0005 eV / electron
  Maximum integral of absolute density change: 0.0001 electrons
  Maximum integral of absolute eigenstate change: 4e-08 eV^2
  Maximum number of iterations: 333

Symmetries present (total): 8

  ( 1  0  0)  ( 1  0  0)  ( 1  0  0)  ( 1  0  0)  ( 1  0  0)  ( 1  0  0)
  ( 0  1  0)  ( 0  1  0)  ( 0  0  1)  ( 0  0  1)  ( 0  0 -1)  ( 0  0 -1)
  ( 0  0  1)  ( 0  0 -1)  ( 0  1  0)  ( 0 -1  0)  ( 0  1  0)  ( 0 -1  0)

  ( 1  0  0)  ( 1  0  0)
  ( 0 -1  0)  ( 0 -1  0)
  ( 0  0  1)  ( 0  0 -1)

1 k-point (Gamma)
1 k-point in the irreducible part of the Brillouin zone
       k-points in crystal coordinates                weights
   0:     0.00000000    0.00000000    0.00000000          1/1

Wave functions: Plane wave expansion
  Cutoff energy: 272.114 eV
  Number of coefficients: 3013 (reduced to 1507)
  Pulay-stress correction: 0.000000 eV/Ang^3 (de/decut=0.000000)
  Using Numpy's FFT
  ScaLapack parameters: grid=1x1, blocksize=None
  Wavefunction extrapolation:
    Improved wavefunction reuse through dual PAW basis 

  Fermi-Dirac: width=0.1000 eV

Eigensolver
   Davidson(niter=2, smin=None, normalize=True) 

Densities:
  Coarse grid: 42*21*21 grid
  Fine grid: 84*42*42 grid
  Total Charge: 0.000000 

Density mixing:
  Method: separate
  Backend: pulay
  Linear mixing parameter: 0.05
  Mixing with 5 old densities
  Damping of long wave oscillations: 50 

Hamiltonian:
  XC and Coulomb potentials evaluated on a 84*42*42 grid
  Using the PBE Exchange-Correlation functional
 

XC parameters: PBE with 2 nearest neighbor stencil

Memory estimate:
  Process memory now: 116.91 MiB
  Calculator: 12.84 MiB
    Density: 9.10 MiB
      Arrays: 3.67 MiB
      Localized functions: 4.01 MiB
      Mixer: 1.41 MiB
    Hamiltonian: 2.50 MiB
      Arrays: 2.40 MiB
      XC: 0.00 MiB
      Poisson: 0.00 MiB
      vbar: 0.10 MiB
    Wavefunctions: 1.24 MiB
      Arrays psit_nG: 0.25 MiB
      Eigensolver: 0.38 MiB
      Projections: 0.00 MiB
      Projectors: 0.22 MiB
      PW-descriptor: 0.39 MiB

Total number of cores used: 1

Number of atoms: 2
Number of atomic orbitals: 11
Number of bands in calculation: 11
Number of valence electrons: 14
Bands to converge: occupied

... initialized

Initializing position-dependent things.

Density initialized from atomic densities
Creating initial wave functions:
  11 bands from LCAO basis set

    .-------------------------.  
   /|                         |  
  / |                         |  
 *  |                         |  
 |  |                         |  
 |  |                         |  
 |  |                         |  
 |  .-------------------------.  
 | /                         /   
 |/                         /    
 *--Cl------------------Na-*     

Positions:
   0 Na    -1.250000    0.000000    0.000000    ( 0.0000,  0.0000,  0.0000)
   1 Cl     1.250000    0.000000    0.000000    ( 0.0000,  0.0000,  0.0000)

Unit cell:
           periodic     x           y           z      points  spacing
  1. axis:    yes   10.583544    0.000000    0.000000    42     0.2520
  2. axis:    yes    0.000000    5.291772    0.000000    21     0.2520
  3. axis:    yes    0.000000    0.000000    5.291772    21     0.2520

  Lengths:  10.583544   5.291772   5.291772
  Angles:   90.000000  90.000000  90.000000

Effective grid spacing dv^(1/3) = 0.2520

                     log10-error:    total        iterations:
           time      wfs    density  energy       poisson
iter:   1  17:38:31                  -5.566031           
iter:   2  17:38:31  -1.75  -0.98    -5.294544           
iter:   3  17:38:32  -1.09  -1.01    -4.253987           
iter:   4  17:38:32  -2.19  -1.23    -4.176540           
iter:   5  17:38:32  -1.51  -1.26    -4.180058           
iter:   6  17:38:32  -1.58  -1.39    -4.002062           
iter:   7  17:38:32  -2.61  -1.55    -4.001673           
iter:   8  17:38:32  -2.98  -1.57    -4.003836           
iter:   9  17:38:32  -2.47  -1.53    -3.998220           
iter:  10  17:38:32  -2.79  -1.82    -3.986184           
iter:  11  17:38:32  -3.75  -1.84    -3.983103           
iter:  12  17:38:32  -3.31  -2.03    -3.983051           
iter:  13  17:38:33  -4.45  -2.67    -3.983242           
iter:  14  17:38:33  -5.22  -2.70    -3.983474           
iter:  15  17:38:33  -5.33  -2.72    -3.983692           
iter:  16  17:38:33  -5.08  -2.74    -3.983704           
iter:  17  17:38:33  -5.78  -2.82    -3.983779           
iter:  18  17:38:33  -6.20  -2.86    -3.983711           
iter:  19  17:38:33  -5.90  -2.92    -3.983559           
iter:  20  17:38:33  -5.21  -3.01    -3.983760           
iter:  21  17:38:33  -6.29  -3.17    -3.983745           
iter:  22  17:38:33  -5.65  -3.22    -3.983802           
iter:  23  17:38:34  -6.27  -3.43    -3.983837           
iter:  24  17:38:34  -6.38  -3.47    -3.983775           
iter:  25  17:38:34  -6.75  -3.41    -3.983738           
iter:  26  17:38:34  -6.70  -3.47    -3.983817           
iter:  27  17:38:34  -7.26  -3.74    -3.983814           
iter:  28  17:38:34  -7.69  -3.76    -3.983812           
iter:  29  17:38:34  -7.74  -3.79    -3.983816           
iter:  30  17:38:34  -7.08  -3.80    -3.983821           
iter:  31  17:38:34  -7.65  -4.24    -3.983827           

Converged after 31 iterations.

Dipole moment: (4.196235, 0.000000, -0.000000) |e|*Ang

Energy contributions relative to reference atoms: (reference = -16973.559893)

Kinetic:         +5.074377
Potential:       -4.170471
External:        +0.000000
XC:              -4.955046
Entropy (-ST):   -0.012585
Local:           +0.073605
--------------------------
Free energy:     -3.990120
Extrapolated:    -3.983827

 Band  Eigenvalues  Occupancy
    0    -28.60582    2.00000
    1    -28.60582    2.00000
    2    -28.52865    2.00000
    3    -15.71139    2.00000
    4     -4.63055    2.00000
    5     -3.80271    1.99531
    6     -3.80270    1.99531
    7     -2.66165    0.00938
    8      0.50072    0.00000
    9      2.25710    0.00000
   10      2.25719    0.00000

Fermi level: -3.19739

Gap: 1.141 eV
Transition (v -> c):
  (s=0, k=0, n=6, [0.00, 0.00, 0.00]) -> (s=0, k=0, n=7, [0.00, 0.00, 0.00])
