Mg    ONCVPSP-3.2.3.1  r_core=   1.16056   1.56380
12.0000     10.0000      170504    zatom,zion,pspd
8      11   1     4   400     0    pspcod,pspxc,lmax,lloc,mmax,r2well
3.99000000  0.00000000  0.00000000    rchrg fchrg qchrg
2     2     0     0     0    nproj
1     1           extension_switch
0                         2.2500052854734D+00 -8.0862969215334D-01
1  0.0000000000000D+00 -2.1745261147288D-08 -1.1470967509197D-09
2  1.0000000000000D-02  1.2341231334992D-01  3.1878944476954D-02
3  2.0000000000000D-02  2.4592865210121D-01  6.3763605322664D-02
4  3.0000000000000D-02  3.6666571116818D-01  9.5659855162580D-02
5  4.0000000000000D-02  4.8476526664245D-01  1.2757386835715D-01
6  5.0000000000000D-02  5.9940607751588D-01  1.5951224522819D-01
7  6.0000000000000D-02  7.0981503675131D-01  1.9148210516230D-01
8  7.0000000000000D-02  8.1527734774226D-01  2.2349113960551D-01
9  8.0000000000000D-02  9.1514552394828D-01  2.5554761711079D-01
10  9.0000000000000D-02  1.0088470357408D+00  2.8766033398079D-01
11  1.0000000000000D-01  1.0958904586554D+00  3.1983850563018D-01
12  1.1000000000000D-01  1.1758700106397D+00  3.5209159553550D-01
13  1.2000000000000D-01  1.2484684017588D+00  3.8442908050407D-01
14  1.3000000000000D-01  1.3134579573624D+00  4.1686015293103D-01
15  1.4000000000000D-01  1.3707000140843D+00  4.4939336267784D-01
16  1.5000000000000D-01  1.4201426263618D+00  4.8203620314699D-01
17  1.6000000000000D-01  1.4618166585717D+00  5.1479464799954D-01
18  1.7000000000000D-01  1.4958303735249D+00  5.4767264671484D-01
19  1.8000000000000D-01  1.5223626611380D+00  5.8067158878280D-01
20  1.9000000000000D-01  1.5416550808533D+00  6.1378974770544D-01
21  2.0000000000000D-01  1.5540029171336D+00  6.4702171713002D-01
22  2.1000000000000D-01  1.5597454685154D+00  6.8035785230815D-01
23  2.2000000000000D-01  1.5592558067947D+00  7.1378373064964D-01
24  2.3000000000000D-01  1.5529302535465D+00  7.4727964539562D-01
25  2.4000000000000D-01  1.5411778261191D+00  7.8082014636267D-01
26  2.5000000000000D-01  1.5244099043523D+00  8.1437364130226D-01
27  2.6000000000000D-01  1.5030303625701D+00  8.4790207068265D-01
28  2.7000000000000D-01  1.4774263990318D+00  8.8136066764284D-01
29  2.8000000000000D-01  1.4479602772588D+00  9.1469781351032D-01
30  2.9000000000000D-01  1.4149621708864D+00  9.4785499764026D-01
31  3.0000000000000D-01  1.3787242764348D+00  9.8076688845680D-01
32  3.1000000000000D-01  1.3394963272559D+00  1.0133615204943D+00
33  3.2000000000000D-01  1.2974826076064D+00  1.0455605999920D+00
34  3.3000000000000D-01  1.2528405291051D+00  1.0772799292369D+00
35  3.4000000000000D-01  1.2056807935767D+00  1.1084299474242D+00
36  3.5000000000000D-01  1.1560691273675D+00  1.1389163833749D+00
37  3.6000000000000D-01  1.1040295335097D+00  1.1686410130517D+00
38  3.7000000000000D-01  1.0495489705336D+00  1.1975025125243D+00
39  3.8000000000000D-01  9.9258333113162D-01  1.2253973948836D+00
40  3.9000000000000D-01  9.3306456112004D-01  1.2522210176511D+00
41  4.0000000000000D-01  8.7090872998300D-01  1.2778686455264D+00
42  4.1000000000000D-01  8.0602483942235D-01  1.3022365518823D+00
43  4.2000000000000D-01  7.3832413637843D-01  1.3252231413167D+00
44  4.3000000000000D-01  6.6772968242238D-01  1.3467300748029D+00
45  4.4000000000000D-01  5.9418592262465D-01  1.3666633785918D+00
46  4.5000000000000D-01  5.1766799422325D-01  1.3849345180021D+00
47  4.6000000000000D-01  4.3819051875467D-01  1.4014614176113D+00
48  4.7000000000000D-01  3.5581563074194D-01  1.4161694101145D+00
49  4.8000000000000D-01  2.7066001138602D-01  1.4289920972454D+00
50  4.9000000000000D-01  1.8290071667421D-01  1.4398721076335D+00
51  5.0000000000000D-01  9.2779615467635D-02  1.4487617382710D+00
52  5.1000000000000D-01  6.0628388347040D-04  1.4556234683564D+00
53  5.2000000000000D-01 -9.3240762987093D-02  1.4604303366175D+00
54  5.3000000000000D-01 -1.8831458307693D-01  1.4631661757567D+00
55  5.4000000000000D-01 -2.8410210388893D-01  1.4638257003454D+00
56  5.5000000000000D-01 -3.8002820269786D-01  1.4624144472736D+00
57  5.6000000000000D-01 -4.7546152734172D-01  1.4589485706764D+00
58  5.7000000000000D-01 -5.6972197283483D-01  1.4534544960422D+00
59  5.8000000000000D-01 -6.6208968866696D-01  1.4459684409192D+00
60  5.9000000000000D-01 -7.5181545379970D-01  1.4365358121925D+00
61  6.0000000000000D-01 -8.3813222157218D-01  1.4252104922801D+00
62  6.1000000000000D-01 -9.2026760619283D-01  1.4120540287057D+00
63  6.2000000000000D-01 -9.9745705661869D-01  1.3971347433422D+00
64  6.3000000000000D-01 -1.0689574432757D+00  1.3805267791055D+00
65  6.4000000000000D-01 -1.1340607686832D+00  1.3623091030079D+00
66  6.5000000000000D-01 -1.1921077049641D+00  1.3425644852147D+00
67  6.6000000000000D-01 -1.2425006598080D+00  1.3213784740742D+00
68  6.7000000000000D-01 -1.2847160776570D+00  1.2988383870007D+00
69  6.8000000000000D-01 -1.3183156948231D+00  1.2750323365862D+00
70  6.9000000000000D-01 -1.3429564856118D+00  1.2500483104022D+00
71  7.0000000000000D-01 -1.3583990608824D+00  1.2239733216617D+00
72  7.1000000000000D-01 -1.3645143106475D+00  1.1968926462475D+00
73  7.2000000000000D-01 -1.3612881173269D+00  1.1688891596362D+00
74  7.3000000000000D-01 -1.3488240055688D+00  1.1400427849845D+00
75  7.4000000000000D-01 -1.3273436373857D+00  1.1104300611421D+00
76  7.5000000000000D-01 -1.2971851063734D+00  1.0801238366928D+00
77  7.6000000000000D-01 -1.2587990317842D+00  1.0491930933161D+00
78  7.7000000000000D-01 -1.2127425002902D+00  1.0177028989095D+00
79  7.8000000000000D-01 -1.1596709499746D+00  9.8571448805721D-01
80  7.9000000000000D-01 -1.1003281361516D+00  9.5328546463570D-01
81  8.0000000000000D-01 -1.0355343610368D+00  9.2047011868119D-01
82  8.1000000000000D-01 -9.6617318813702D-01  8.8731984715748D-01
83  8.2000000000000D-01 -8.9317689658790D-01  8.5388366601551D-01
84  8.3000000000000D-01 -8.1751095975055D-01  8.2020879897396D-01
85  8.4000000000000D-01 -7.4015785549606D-01  7.8634132681707D-01
86  8.5000000000000D-01 -6.6210053219930D-01  7.5232687973762D-01
87  8.6000000000000D-01 -5.8430586411571D-01  7.1821135437594D-01
88  8.7000000000000D-01 -5.0770843226019D-01  6.8404163674020D-01
89  8.8000000000000D-01 -4.3319496204113D-01  6.4986631214690D-01
90  8.9000000000000D-01 -3.6158973677876D-01  6.1573634369543D-01
91  9.0000000000000D-01 -2.9364128707498D-01  5.8170570157653D-01
92  9.1000000000000D-01 -2.3001063017571D-01  5.4783192669313D-01
93  9.2000000000000D-01 -1.7126130150350D-01  5.1417661361714D-01
94  9.3000000000000D-01 -1.1785138310301D-01  4.8080579978058D-01
95  9.4000000000000D-01 -7.0127691625493D-02  4.4779024996264D-01
96  9.5000000000000D-01 -2.8322242580304D-02  4.1520562753508D-01
97  9.6000000000000D-01  7.4489411108148D-03  3.8313254651378D-01
98  9.7000000000000D-01  3.7184658613838D-02  3.5165650117160D-01
99  9.8000000000000D-01  6.0995032296900D-02  3.2086767274901D-01
100  9.9000000000000D-01  7.9095764671443D-02  2.9086061557572D-01
101  1.0000000000000D+00  9.1800283492209D-02  2.6173382757846D-01
102  1.0100000000000D+00  9.9509955299475D-02  2.3358921282720D-01
103  1.0200000000000D+00  1.0270258894688D-01  2.0653144610023D-01
104  1.0300000000000D+00  1.0191948921138D-01  1.8066725164631D-01
105  1.0400000000000D+00  9.7751352964985D-02  1.5610461019546D-01
106  1.0500000000000D+00  9.0823326812235D-02  1.3295190983495D-01
107  1.0600000000000D+00  8.1779563609660D-02  1.1131705748827D-01
108  1.0700000000000D+00  7.1267631139636D-02  9.1306569154576D-02
109  1.0800000000000D+00  5.9923114131192D-02  7.3024653373473D-02
110  1.0900000000000D+00  4.8354818725222D-02  5.6572320169063D-02
111  1.1000000000000D+00  3.7130614181034D-02  4.2046457349300D-02
112  1.1100000000000D+00  2.6765556196212D-02  2.9539226440129D-02
113  1.1200000000000D+00  1.7707303423837D-02  1.9136589385815D-02
114  1.1300000000000D+00  1.0322720654873D-02  1.0918566278061D-02
115  1.1400000000000D+00  4.8357491393039D-03  4.9123782197195D-03
116  1.1500000000000D+00  1.5836484695865D-03  1.3251916800963D-03
117  1.1600000000000D+00  3.5253253415619D-04 -2.0625927949892D-05
118  1.1700000000000D+00  3.0327603181458D-05 -9.1236639411213D-05
119  1.1800000000000D+00 -2.8644711148197D-06  3.9483678935549D-05
120  1.1900000000000D+00  8.3495091621528D-07 -2.6875951990563D-06
121  1.2000000000000D+00  8.9939935032097D-07 -4.1374816296831D-06
122  1.2100000000000D+00 -9.0776659392419D-07  1.3542011549229D-07
123  1.2200000000000D+00  0.0000000000000D+00  0.0000000000000D+00
124  1.2300000000000D+00  0.0000000000000D+00  0.0000000000000D+00
125  1.2400000000000D+00  0.0000000000000D+00  0.0000000000000D+00
126  1.2500000000000D+00  0.0000000000000D+00  0.0000000000000D+00
127  1.2600000000000D+00  0.0000000000000D+00  0.0000000000000D+00
128  1.2700000000000D+00  0.0000000000000D+00  0.0000000000000D+00
129  1.2800000000000D+00  0.0000000000000D+00  0.0000000000000D+00
130  1.2900000000000D+00  0.0000000000000D+00  0.0000000000000D+00
131  1.3000000000000D+00  0.0000000000000D+00  0.0000000000000D+00
132  1.3100000000000D+00  0.0000000000000D+00  0.0000000000000D+00
133  1.3200000000000D+00  0.0000000000000D+00  0.0000000000000D+00
134  1.3300000000000D+00  0.0000000000000D+00  0.0000000000000D+00
135  1.3400000000000D+00  0.0000000000000D+00  0.0000000000000D+00
136  1.3500000000000D+00  0.0000000000000D+00  0.0000000000000D+00
137  1.3600000000000D+00  0.0000000000000D+00  0.0000000000000D+00
138  1.3700000000000D+00  0.0000000000000D+00  0.0000000000000D+00
139  1.3800000000000D+00  0.0000000000000D+00  0.0000000000000D+00
140  1.3900000000000D+00  0.0000000000000D+00  0.0000000000000D+00
141  1.4000000000000D+00  0.0000000000000D+00  0.0000000000000D+00
142  1.4100000000000D+00  0.0000000000000D+00  0.0000000000000D+00
143  1.4200000000000D+00  0.0000000000000D+00  0.0000000000000D+00
144  1.4300000000000D+00  0.0000000000000D+00  0.0000000000000D+00
145  1.4400000000000D+00  0.0000000000000D+00  0.0000000000000D+00
146  1.4500000000000D+00  0.0000000000000D+00  0.0000000000000D+00
147  1.4600000000000D+00  0.0000000000000D+00  0.0000000000000D+00
148  1.4700000000000D+00  0.0000000000000D+00  0.0000000000000D+00
149  1.4800000000000D+00  0.0000000000000D+00  0.0000000000000D+00
150  1.4900000000000D+00  0.0000000000000D+00  0.0000000000000D+00
151  1.5000000000000D+00  0.0000000000000D+00  0.0000000000000D+00
152  1.5100000000000D+00  0.0000000000000D+00  0.0000000000000D+00
153  1.5200000000000D+00  0.0000000000000D+00  0.0000000000000D+00
154  1.5300000000000D+00  0.0000000000000D+00  0.0000000000000D+00
155  1.5400000000000D+00  0.0000000000000D+00  0.0000000000000D+00
156  1.5500000000000D+00  0.0000000000000D+00  0.0000000000000D+00
157  1.5600000000000D+00  0.0000000000000D+00  0.0000000000000D+00
158  1.5700000000000D+00  0.0000000000000D+00  0.0000000000000D+00
159  1.5800000000000D+00  0.0000000000000D+00  0.0000000000000D+00
160  1.5900000000000D+00  0.0000000000000D+00  0.0000000000000D+00
161  1.6000000000000D+00  0.0000000000000D+00  0.0000000000000D+00
162  1.6100000000000D+00  0.0000000000000D+00  0.0000000000000D+00
163  1.6200000000000D+00  0.0000000000000D+00  0.0000000000000D+00
164  1.6300000000000D+00  0.0000000000000D+00  0.0000000000000D+00
165  1.6400000000000D+00  0.0000000000000D+00  0.0000000000000D+00
166  1.6500000000000D+00  0.0000000000000D+00  0.0000000000000D+00
167  1.6600000000000D+00  0.0000000000000D+00  0.0000000000000D+00
168  1.6700000000000D+00  0.0000000000000D+00  0.0000000000000D+00
169  1.6800000000000D+00  0.0000000000000D+00  0.0000000000000D+00
170  1.6900000000000D+00  0.0000000000000D+00  0.0000000000000D+00
171  1.7000000000000D+00  0.0000000000000D+00  0.0000000000000D+00
172  1.7100000000000D+00  0.0000000000000D+00  0.0000000000000D+00
173  1.7200000000000D+00  0.0000000000000D+00  0.0000000000000D+00
174  1.7300000000000D+00  0.0000000000000D+00  0.0000000000000D+00
175  1.7400000000000D+00  0.0000000000000D+00  0.0000000000000D+00
176  1.7500000000000D+00  0.0000000000000D+00  0.0000000000000D+00
177  1.7600000000000D+00  0.0000000000000D+00  0.0000000000000D+00
178  1.7700000000000D+00  0.0000000000000D+00  0.0000000000000D+00
179  1.7800000000000D+00  0.0000000000000D+00  0.0000000000000D+00
180  1.7900000000000D+00  0.0000000000000D+00  0.0000000000000D+00
181  1.8000000000000D+00  0.0000000000000D+00  0.0000000000000D+00
182  1.8100000000000D+00  0.0000000000000D+00  0.0000000000000D+00
183  1.8200000000000D+00  0.0000000000000D+00  0.0000000000000D+00
184  1.8300000000000D+00  0.0000000000000D+00  0.0000000000000D+00
185  1.8400000000000D+00  0.0000000000000D+00  0.0000000000000D+00
186  1.8500000000000D+00  0.0000000000000D+00  0.0000000000000D+00
187  1.8600000000000D+00  0.0000000000000D+00  0.0000000000000D+00
188  1.8700000000000D+00  0.0000000000000D+00  0.0000000000000D+00
189  1.8800000000000D+00  0.0000000000000D+00  0.0000000000000D+00
190  1.8900000000000D+00  0.0000000000000D+00  0.0000000000000D+00
191  1.9000000000000D+00  0.0000000000000D+00  0.0000000000000D+00
192  1.9100000000000D+00  0.0000000000000D+00  0.0000000000000D+00
193  1.9200000000000D+00  0.0000000000000D+00  0.0000000000000D+00
194  1.9300000000000D+00  0.0000000000000D+00  0.0000000000000D+00
195  1.9400000000000D+00  0.0000000000000D+00  0.0000000000000D+00
196  1.9500000000000D+00  0.0000000000000D+00  0.0000000000000D+00
197  1.9600000000000D+00  0.0000000000000D+00  0.0000000000000D+00
198  1.9700000000000D+00  0.0000000000000D+00  0.0000000000000D+00
199  1.9800000000000D+00  0.0000000000000D+00  0.0000000000000D+00
200  1.9900000000000D+00  0.0000000000000D+00  0.0000000000000D+00
201  2.0000000000000D+00  0.0000000000000D+00  0.0000000000000D+00
202  2.0100000000000D+00  0.0000000000000D+00  0.0000000000000D+00
203  2.0200000000000D+00  0.0000000000000D+00  0.0000000000000D+00
204  2.0300000000000D+00  0.0000000000000D+00  0.0000000000000D+00
205  2.0400000000000D+00  0.0000000000000D+00  0.0000000000000D+00
206  2.0500000000000D+00  0.0000000000000D+00  0.0000000000000D+00
207  2.0600000000000D+00  0.0000000000000D+00  0.0000000000000D+00
208  2.0700000000000D+00  0.0000000000000D+00  0.0000000000000D+00
209  2.0800000000000D+00  0.0000000000000D+00  0.0000000000000D+00
210  2.0900000000000D+00  0.0000000000000D+00  0.0000000000000D+00
211  2.1000000000000D+00  0.0000000000000D+00  0.0000000000000D+00
212  2.1100000000000D+00  0.0000000000000D+00  0.0000000000000D+00
213  2.1200000000000D+00  0.0000000000000D+00  0.0000000000000D+00
214  2.1300000000000D+00  0.0000000000000D+00  0.0000000000000D+00
215  2.1400000000000D+00  0.0000000000000D+00  0.0000000000000D+00
216  2.1500000000000D+00  0.0000000000000D+00  0.0000000000000D+00
217  2.1600000000000D+00  0.0000000000000D+00  0.0000000000000D+00
218  2.1700000000000D+00  0.0000000000000D+00  0.0000000000000D+00
219  2.1800000000000D+00  0.0000000000000D+00  0.0000000000000D+00
220  2.1900000000000D+00  0.0000000000000D+00  0.0000000000000D+00
221  2.2000000000000D+00  0.0000000000000D+00  0.0000000000000D+00
222  2.2100000000000D+00  0.0000000000000D+00  0.0000000000000D+00
223  2.2200000000000D+00  0.0000000000000D+00  0.0000000000000D+00
224  2.2300000000000D+00  0.0000000000000D+00  0.0000000000000D+00
225  2.2400000000000D+00  0.0000000000000D+00  0.0000000000000D+00
226  2.2500000000000D+00  0.0000000000000D+00  0.0000000000000D+00
227  2.2600000000000D+00  0.0000000000000D+00  0.0000000000000D+00
228  2.2700000000000D+00  0.0000000000000D+00  0.0000000000000D+00
229  2.2800000000000D+00  0.0000000000000D+00  0.0000000000000D+00
230  2.2900000000000D+00  0.0000000000000D+00  0.0000000000000D+00
231  2.3000000000000D+00  0.0000000000000D+00  0.0000000000000D+00
232  2.3100000000000D+00  0.0000000000000D+00  0.0000000000000D+00
233  2.3200000000000D+00  0.0000000000000D+00  0.0000000000000D+00
234  2.3300000000000D+00  0.0000000000000D+00  0.0000000000000D+00
235  2.3400000000000D+00  0.0000000000000D+00  0.0000000000000D+00
236  2.3500000000000D+00  0.0000000000000D+00  0.0000000000000D+00
237  2.3600000000000D+00  0.0000000000000D+00  0.0000000000000D+00
238  2.3700000000000D+00  0.0000000000000D+00  0.0000000000000D+00
239  2.3800000000000D+00  0.0000000000000D+00  0.0000000000000D+00
240  2.3900000000000D+00  0.0000000000000D+00  0.0000000000000D+00
241  2.4000000000000D+00  0.0000000000000D+00  0.0000000000000D+00
242  2.4100000000000D+00  0.0000000000000D+00  0.0000000000000D+00
243  2.4200000000000D+00  0.0000000000000D+00  0.0000000000000D+00
244  2.4300000000000D+00  0.0000000000000D+00  0.0000000000000D+00
245  2.4400000000000D+00  0.0000000000000D+00  0.0000000000000D+00
246  2.4500000000000D+00  0.0000000000000D+00  0.0000000000000D+00
247  2.4600000000000D+00  0.0000000000000D+00  0.0000000000000D+00
248  2.4700000000000D+00  0.0000000000000D+00  0.0000000000000D+00
249  2.4800000000000D+00  0.0000000000000D+00  0.0000000000000D+00
250  2.4900000000000D+00  0.0000000000000D+00  0.0000000000000D+00
251  2.5000000000000D+00  0.0000000000000D+00  0.0000000000000D+00
252  2.5100000000000D+00  0.0000000000000D+00  0.0000000000000D+00
253  2.5200000000000D+00  0.0000000000000D+00  0.0000000000000D+00
254  2.5300000000000D+00  0.0000000000000D+00  0.0000000000000D+00
255  2.5400000000000D+00  0.0000000000000D+00  0.0000000000000D+00
256  2.5500000000000D+00  0.0000000000000D+00  0.0000000000000D+00
257  2.5600000000000D+00  0.0000000000000D+00  0.0000000000000D+00
258  2.5700000000000D+00  0.0000000000000D+00  0.0000000000000D+00
259  2.5800000000000D+00  0.0000000000000D+00  0.0000000000000D+00
260  2.5900000000000D+00  0.0000000000000D+00  0.0000000000000D+00
261  2.6000000000000D+00  0.0000000000000D+00  0.0000000000000D+00
262  2.6100000000000D+00  0.0000000000000D+00  0.0000000000000D+00
263  2.6200000000000D+00  0.0000000000000D+00  0.0000000000000D+00
264  2.6300000000000D+00  0.0000000000000D+00  0.0000000000000D+00
265  2.6400000000000D+00  0.0000000000000D+00  0.0000000000000D+00
266  2.6500000000000D+00  0.0000000000000D+00  0.0000000000000D+00
267  2.6600000000000D+00  0.0000000000000D+00  0.0000000000000D+00
268  2.6700000000000D+00  0.0000000000000D+00  0.0000000000000D+00
269  2.6800000000000D+00  0.0000000000000D+00  0.0000000000000D+00
270  2.6900000000000D+00  0.0000000000000D+00  0.0000000000000D+00
271  2.7000000000000D+00  0.0000000000000D+00  0.0000000000000D+00
272  2.7100000000000D+00  0.0000000000000D+00  0.0000000000000D+00
273  2.7200000000000D+00  0.0000000000000D+00  0.0000000000000D+00
274  2.7300000000000D+00  0.0000000000000D+00  0.0000000000000D+00
275  2.7400000000000D+00  0.0000000000000D+00  0.0000000000000D+00
276  2.7500000000000D+00  0.0000000000000D+00  0.0000000000000D+00
277  2.7600000000000D+00  0.0000000000000D+00  0.0000000000000D+00
278  2.7700000000000D+00  0.0000000000000D+00  0.0000000000000D+00
279  2.7800000000000D+00  0.0000000000000D+00  0.0000000000000D+00
280  2.7900000000000D+00  0.0000000000000D+00  0.0000000000000D+00
281  2.8000000000000D+00  0.0000000000000D+00  0.0000000000000D+00
282  2.8100000000000D+00  0.0000000000000D+00  0.0000000000000D+00
283  2.8200000000000D+00  0.0000000000000D+00  0.0000000000000D+00
284  2.8300000000000D+00  0.0000000000000D+00  0.0000000000000D+00
285  2.8400000000000D+00  0.0000000000000D+00  0.0000000000000D+00
286  2.8500000000000D+00  0.0000000000000D+00  0.0000000000000D+00
287  2.8600000000000D+00  0.0000000000000D+00  0.0000000000000D+00
288  2.8700000000000D+00  0.0000000000000D+00  0.0000000000000D+00
289  2.8800000000000D+00  0.0000000000000D+00  0.0000000000000D+00
290  2.8900000000000D+00  0.0000000000000D+00  0.0000000000000D+00
291  2.9000000000000D+00  0.0000000000000D+00  0.0000000000000D+00
292  2.9100000000000D+00  0.0000000000000D+00  0.0000000000000D+00
293  2.9200000000000D+00  0.0000000000000D+00  0.0000000000000D+00
294  2.9300000000000D+00  0.0000000000000D+00  0.0000000000000D+00
295  2.9400000000000D+00  0.0000000000000D+00  0.0000000000000D+00
296  2.9500000000000D+00  0.0000000000000D+00  0.0000000000000D+00
297  2.9600000000000D+00  0.0000000000000D+00  0.0000000000000D+00
298  2.9700000000000D+00  0.0000000000000D+00  0.0000000000000D+00
299  2.9800000000000D+00  0.0000000000000D+00  0.0000000000000D+00
300  2.9900000000000D+00  0.0000000000000D+00  0.0000000000000D+00
301  3.0000000000000D+00  0.0000000000000D+00  0.0000000000000D+00
302  3.0100000000000D+00  0.0000000000000D+00  0.0000000000000D+00
303  3.0200000000000D+00  0.0000000000000D+00  0.0000000000000D+00
304  3.0300000000000D+00  0.0000000000000D+00  0.0000000000000D+00
305  3.0400000000000D+00  0.0000000000000D+00  0.0000000000000D+00
306  3.0500000000000D+00  0.0000000000000D+00  0.0000000000000D+00
307  3.0600000000000D+00  0.0000000000000D+00  0.0000000000000D+00
308  3.0700000000000D+00  0.0000000000000D+00  0.0000000000000D+00
309  3.0800000000000D+00  0.0000000000000D+00  0.0000000000000D+00
310  3.0900000000000D+00  0.0000000000000D+00  0.0000000000000D+00
311  3.1000000000000D+00  0.0000000000000D+00  0.0000000000000D+00
312  3.1100000000000D+00  0.0000000000000D+00  0.0000000000000D+00
313  3.1200000000000D+00  0.0000000000000D+00  0.0000000000000D+00
314  3.1300000000000D+00  0.0000000000000D+00  0.0000000000000D+00
315  3.1400000000000D+00  0.0000000000000D+00  0.0000000000000D+00
316  3.1500000000000D+00  0.0000000000000D+00  0.0000000000000D+00
317  3.1600000000000D+00  0.0000000000000D+00  0.0000000000000D+00
318  3.1700000000000D+00  0.0000000000000D+00  0.0000000000000D+00
319  3.1800000000000D+00  0.0000000000000D+00  0.0000000000000D+00
320  3.1900000000000D+00  0.0000000000000D+00  0.0000000000000D+00
321  3.2000000000000D+00  0.0000000000000D+00  0.0000000000000D+00
322  3.2100000000000D+00  0.0000000000000D+00  0.0000000000000D+00
323  3.2200000000000D+00  0.0000000000000D+00  0.0000000000000D+00
324  3.2300000000000D+00  0.0000000000000D+00  0.0000000000000D+00
325  3.2400000000000D+00  0.0000000000000D+00  0.0000000000000D+00
326  3.2500000000000D+00  0.0000000000000D+00  0.0000000000000D+00
327  3.2600000000000D+00  0.0000000000000D+00  0.0000000000000D+00
328  3.2700000000000D+00  0.0000000000000D+00  0.0000000000000D+00
329  3.2800000000000D+00  0.0000000000000D+00  0.0000000000000D+00
330  3.2900000000000D+00  0.0000000000000D+00  0.0000000000000D+00
331  3.3000000000000D+00  0.0000000000000D+00  0.0000000000000D+00
332  3.3100000000000D+00  0.0000000000000D+00  0.0000000000000D+00
333  3.3200000000000D+00  0.0000000000000D+00  0.0000000000000D+00
334  3.3300000000000D+00  0.0000000000000D+00  0.0000000000000D+00
335  3.3400000000000D+00  0.0000000000000D+00  0.0000000000000D+00
336  3.3500000000000D+00  0.0000000000000D+00  0.0000000000000D+00
337  3.3600000000000D+00  0.0000000000000D+00  0.0000000000000D+00
338  3.3700000000000D+00  0.0000000000000D+00  0.0000000000000D+00
339  3.3800000000000D+00  0.0000000000000D+00  0.0000000000000D+00
340  3.3900000000000D+00  0.0000000000000D+00  0.0000000000000D+00
341  3.4000000000000D+00  0.0000000000000D+00  0.0000000000000D+00
342  3.4100000000000D+00  0.0000000000000D+00  0.0000000000000D+00
343  3.4200000000000D+00  0.0000000000000D+00  0.0000000000000D+00
344  3.4300000000000D+00  0.0000000000000D+00  0.0000000000000D+00
345  3.4400000000000D+00  0.0000000000000D+00  0.0000000000000D+00
346  3.4500000000000D+00  0.0000000000000D+00  0.0000000000000D+00
347  3.4600000000000D+00  0.0000000000000D+00  0.0000000000000D+00
348  3.4700000000000D+00  0.0000000000000D+00  0.0000000000000D+00
349  3.4800000000000D+00  0.0000000000000D+00  0.0000000000000D+00
350  3.4900000000000D+00  0.0000000000000D+00  0.0000000000000D+00
351  3.5000000000000D+00  0.0000000000000D+00  0.0000000000000D+00
352  3.5100000000000D+00  0.0000000000000D+00  0.0000000000000D+00
353  3.5200000000000D+00  0.0000000000000D+00  0.0000000000000D+00
354  3.5300000000000D+00  0.0000000000000D+00  0.0000000000000D+00
355  3.5400000000000D+00  0.0000000000000D+00  0.0000000000000D+00
356  3.5500000000000D+00  0.0000000000000D+00  0.0000000000000D+00
357  3.5600000000000D+00  0.0000000000000D+00  0.0000000000000D+00
358  3.5700000000000D+00  0.0000000000000D+00  0.0000000000000D+00
359  3.5800000000000D+00  0.0000000000000D+00  0.0000000000000D+00
360  3.5900000000000D+00  0.0000000000000D+00  0.0000000000000D+00
361  3.6000000000000D+00  0.0000000000000D+00  0.0000000000000D+00
362  3.6100000000000D+00  0.0000000000000D+00  0.0000000000000D+00
363  3.6200000000000D+00  0.0000000000000D+00  0.0000000000000D+00
364  3.6300000000000D+00  0.0000000000000D+00  0.0000000000000D+00
365  3.6400000000000D+00  0.0000000000000D+00  0.0000000000000D+00
366  3.6500000000000D+00  0.0000000000000D+00  0.0000000000000D+00
367  3.6600000000000D+00  0.0000000000000D+00  0.0000000000000D+00
368  3.6700000000000D+00  0.0000000000000D+00  0.0000000000000D+00
369  3.6800000000000D+00  0.0000000000000D+00  0.0000000000000D+00
370  3.6900000000000D+00  0.0000000000000D+00  0.0000000000000D+00
371  3.7000000000000D+00  0.0000000000000D+00  0.0000000000000D+00
372  3.7100000000000D+00  0.0000000000000D+00  0.0000000000000D+00
373  3.7200000000000D+00  0.0000000000000D+00  0.0000000000000D+00
374  3.7300000000000D+00  0.0000000000000D+00  0.0000000000000D+00
375  3.7400000000000D+00  0.0000000000000D+00  0.0000000000000D+00
376  3.7500000000000D+00  0.0000000000000D+00  0.0000000000000D+00
377  3.7600000000000D+00  0.0000000000000D+00  0.0000000000000D+00
378  3.7700000000000D+00  0.0000000000000D+00  0.0000000000000D+00
379  3.7800000000000D+00  0.0000000000000D+00  0.0000000000000D+00
380  3.7900000000000D+00  0.0000000000000D+00  0.0000000000000D+00
381  3.8000000000000D+00  0.0000000000000D+00  0.0000000000000D+00
382  3.8100000000000D+00  0.0000000000000D+00  0.0000000000000D+00
383  3.8200000000000D+00  0.0000000000000D+00  0.0000000000000D+00
384  3.8300000000000D+00  0.0000000000000D+00  0.0000000000000D+00
385  3.8400000000000D+00  0.0000000000000D+00  0.0000000000000D+00
386  3.8500000000000D+00  0.0000000000000D+00  0.0000000000000D+00
387  3.8600000000000D+00  0.0000000000000D+00  0.0000000000000D+00
388  3.8700000000000D+00  0.0000000000000D+00  0.0000000000000D+00
389  3.8800000000000D+00  0.0000000000000D+00  0.0000000000000D+00
390  3.8900000000000D+00  0.0000000000000D+00  0.0000000000000D+00
391  3.9000000000000D+00  0.0000000000000D+00  0.0000000000000D+00
392  3.9100000000000D+00  0.0000000000000D+00  0.0000000000000D+00
393  3.9200000000000D+00  0.0000000000000D+00  0.0000000000000D+00
394  3.9300000000000D+00  0.0000000000000D+00  0.0000000000000D+00
395  3.9400000000000D+00  0.0000000000000D+00  0.0000000000000D+00
396  3.9500000000000D+00  0.0000000000000D+00  0.0000000000000D+00
397  3.9600000000000D+00  0.0000000000000D+00  0.0000000000000D+00
398  3.9700000000000D+00  0.0000000000000D+00  0.0000000000000D+00
399  3.9800000000000D+00  0.0000000000000D+00  0.0000000000000D+00
400  3.9900000000000D+00  0.0000000000000D+00  0.0000000000000D+00
1                        -6.4693573917920D+00 -2.5033129894415D+00
1  0.0000000000000D+00  5.0699378029151D-10 -1.0378449835646D-09
2  1.0000000000000D-02  1.9788265831822D-03 -8.7923074515430D-04
3  2.0000000000000D-02  7.9059305371853D-03 -3.5083584900829D-03
4  3.0000000000000D-02  1.7753230224559D-02 -7.8617546422993D-03
5  4.0000000000000D-02  3.1474075140954D-02 -1.3896920576012D-02
6  5.0000000000000D-02  4.9003473300732D-02 -2.1554809190564D-02
7  6.0000000000000D-02  7.0258407682542D-02 -3.0760271146747D-02
8  7.0000000000000D-02  9.5138239860735D-02 -4.1422621888209D-02
9  8.0000000000000D-02  1.2352519844153D-01 -5.3436324517328D-02
10  9.0000000000000D-02  1.5528494943676D-01 -6.6681782611732D-02
11  1.0000000000000D-01  1.9026724524704D-01 -8.1026236149547D-02
12  1.1000000000000D-01  2.2830664849362D-01 -9.6324752868294D-02
13  1.2000000000000D-01  2.6922332653836D-01 -1.1242130662315D-01
14  1.3000000000000D-01  3.1282391216599D-01 -1.2914993364233D-01
15  1.4000000000000D-01  3.5890242557582D-01 -1.4633595700792D-01
16  1.5000000000000D-01  4.0724125254278D-01 -1.6379726922403D-01
17  1.6000000000000D-01  4.5761217336161D-01 -1.8134566237541D-01
18  1.7000000000000D-01  5.0977743698507D-01 -1.9878819513051D-01
19  1.8000000000000D-01  5.6349087460711D-01 -2.1592858570545D-01
20  1.9000000000000D-01  6.1849904682483D-01 -2.3256861987800D-01
21  2.0000000000000D-01  6.7454241843976D-01 -2.4850956322351D-01
22  2.1000000000000D-01  7.3135655492674D-01 -2.6355356693259D-01
23  2.2000000000000D-01  7.8867333460762D-01 -2.7750505686131D-01
24  2.3000000000000D-01  8.4622217061414D-01 -2.9017209585100D-01
25  2.4000000000000D-01  9.0373123680850D-01 -3.0136770983100D-01
26  2.5000000000000D-01  9.6092869194769D-01 -3.1091116877552D-01
27  2.6000000000000D-01  1.0175438965264D+00 -3.1862921421651D-01
28  2.7000000000000D-01  1.0733086169098D+00 -3.2435722570830D-01
29  2.8000000000000D-01  1.1279582115676D+00 -3.2794031938682D-01
30  2.9000000000000D-01  1.1812327944427D+00 -3.2923437255532D-01
31  3.0000000000000D-01  1.2328783707269D+00 -3.2810696904835D-01
32  3.1000000000000D-01  1.2826479405650D+00 -3.2443826096583D-01
33  3.2000000000000D-01  1.3303025664737D+00 -3.1812174321663D-01
34  3.3000000000000D-01  1.3756124005258D+00 -3.0906493815610D-01
35  3.4000000000000D-01  1.4183576676222D+00 -2.9718998843270D-01
36  3.5000000000000D-01  1.4583296014432D+00 -2.8243415696528D-01
37  3.6000000000000D-01  1.4953313299340D+00 -2.6475023374453D-01
38  3.7000000000000D-01  1.5291787074428D+00 -2.4410684988042D-01
39  3.8000000000000D-01  1.5597010908767D+00 -2.2048869999456D-01
40  3.9000000000000D-01  1.5867420574836D+00 -1.9389667467440D-01
41  4.0000000000000D-01  1.6101600620957D+00 -1.6434790525918D-01
42  4.1000000000000D-01  1.6298290318847D+00 -1.3187572371166D-01
43  4.2000000000000D-01  1.6456388968836D+00 -9.6529540739628D-02