Si    ONCVPSP-3.2.3.1  r_core=   1.60303   1.72197   1.91712
14.0000      4.0000      170510    zatom,zion,pspd
8      11   2     4   600     0    pspcod,pspxc,lmax,lloc,mmax,r2well
5.99000000  0.00000000  0.00000000    rchrg fchrg qchrg
2     2     2     0     0    nproj
1     1           extension_switch
0                         5.1689652486091D+00  8.2988268871509D-01
1  0.0000000000000D+00 -5.6328875175371D-09  1.2523277137522D-08
2  1.0000000000000D-02  3.1595742774954D-02 -7.8297391246428D-03
3  2.0000000000000D-02  6.2932621167537D-02 -1.5104637953209D-02
4  3.0000000000000D-02  9.3756650477386D-02 -2.1280726187726D-02
5  4.0000000000000D-02  1.2382351921221D-01 -2.5835581967505D-02
6  5.0000000000000D-02  1.5290321177103D-01 -2.8278630456707D-02
7  6.0000000000000D-02  1.8078437851144D-01 -2.8160880765399D-02
8  7.0000000000000D-02  2.0727837573680D-01 -2.5083928969944D-02
9  8.0000000000000D-02  2.3222290377250D-01 -1.8708067521868D-02
10  9.0000000000000D-02  2.5548517816227D-01 -8.7593565902019D-03
11  1.0000000000000D-01  2.7696457699180D-01  4.9644693850475D-03
12  1.1000000000000D-01  2.9659471630396D-01  2.2589366738539D-02
13  1.2000000000000D-01  3.1434491535677D-01  4.4161704277262D-02
14  1.3000000000000D-01  3.3022102392855D-01  6.9646403445929D-02
15  1.4000000000000D-01  3.4426559481810D-01  9.8926534449132D-02
16  1.5000000000000D-01  3.5655739593809D-01  1.3180438081248D-01
17  1.6000000000000D-01  3.6721026776667D-01  1.6800395959876D-01
18  1.7000000000000D-01  3.7637134321582D-01  2.0717495939588D-01
19  1.8000000000000D-01  3.8421865800236D-01  2.4889803368443D-01
20  1.9000000000000D-01  3.9095819018470D-01  2.9269136368867D-01
21  2.0000000000000D-01  3.9682037747447D-01  3.3801838271441D-01
22  2.1000000000000D-01  4.0205617007906D-01  3.8429653365518D-01
23  2.2000000000000D-01  4.0693268502253D-01  4.3090691315217D-01
24  2.3000000000000D-01  4.1172853498872D-01  4.7720464013361D-01
25  2.4000000000000D-01  4.1672891060842D-01  5.2252977340893D-01
26  2.5000000000000D-01  4.2222049967141D-01  5.6621859287691D-01
27  2.6000000000000D-01  4.2848632990249D-01  6.0761505190512D-01
28  2.7000000000000D-01  4.3580062364236D-01  6.4608220467585D-01
29  2.8000000000000D-01  4.4442375298540D-01  6.8101341184374D-01
30  2.9000000000000D-01  4.5459738264007D-01  7.1184313073199D-01
31  3.0000000000000D-01  4.6653988500966D-01  7.3805710246614D-01
32  3.1000000000000D-01  4.8044210778405D-01  7.5920175781743D-01
33  3.2000000000000D-01  4.9646356875204D-01  7.7489267595138D-01
34  3.3000000000000D-01  5.1472914567837D-01  7.8482194555648D-01
35  3.4000000000000D-01  5.3532632104931D-01  7.8876429571351D-01
36  3.5000000000000D-01  5.5830303240788D-01  7.8658188406868D-01
37  3.6000000000000D-01  5.8366616902046D-01  7.7822765206443D-01
38  3.7000000000000D-01  6.1138074490705D-01  7.6374718079129D-01
39  3.8000000000000D-01  6.4136976700168D-01  7.4327900606676D-01
40  3.9000000000000D-01  6.7351480557618D-01  7.1705337720062D-01
41  4.0000000000000D-01  7.0765726225123D-01  6.8538947014600D-01
42  4.1000000000000D-01  7.4360031913055D-01  6.4869109192221D-01
43  4.2000000000000D-01  7.8111154102484D-01  6.0744093888976D-01
44  4.3000000000000D-01  8.1992609157542D-01  5.6219349622839D-01
45  4.4000000000000D-01  8.5975051353205D-01  5.1356668939825D-01
46  4.5000000000000D-01  9.0026701366352D-01  4.6223242005209D-01
47  4.6000000000000D-01  9.4113818395074D-01  4.0890613844527D-01
48  4.7000000000000D-01  9.8201208298133D-01  3.5433562152023D-01
49  4.8000000000000D-01  1.0225275949668D+00  2.9928914022783D-01
50  4.9000000000000D-01  1.0623199786517D+00  2.4454321103429D-01
51  5.0000000000000D-01  1.1010265146723D+00  1.9087013474537D-01
52  5.1000000000000D-01  1.1382921577181D+00  1.3902553060572D-01
53  5.2000000000000D-01  1.1737750991974D+00  8.9736075006034D-02
54  5.3000000000000D-01  1.2071521470300D+00  4.3687652002627D-02
55  5.4000000000000D-01  1.2381238316693D+00  1.5141172648409D-03
56  5.5000000000000D-01  1.2664191514762D+00 -3.6213131951701D-02
57  5.6000000000000D-01  1.2917998760523D+00 -6.8994600473658D-02
58  5.7000000000000D-01  1.3140643330124D+00 -9.6410987550213D-02
59  5.8000000000000D-01  1.3330506118474D+00 -1.1813018111979D-01
60  5.9000000000000D-01  1.3486391278263D+00 -1.3391282800303D-01
61  6.0000000000000D-01  1.3607544992241D+00 -1.4361637706004D-01
62  6.1000000000000D-01  1.3693667023132D+00 -1.4719751719401D-01
63  6.2000000000000D-01  1.3744914803760D+00 -1.4471295840236D-01
64  6.3000000000000D-01  1.3761899953185D+00 -1.3631853151475D-01
65  6.4000000000000D-01  1.3745677229686D+00 -1.2226661006912D-01
66  6.5000000000000D-01  1.3697726058327D+00 -1.0290188600949D-01
67  6.6000000000000D-01  1.3619924895287D+00 -7.8655558561324D-02
68  6.7000000000000D-01  1.3514518812202D+00 -5.0038022534723D-02
69  6.8000000000000D-01  1.3384080799962D+00 -1.7630168129672D-02
70  6.9000000000000D-01  1.3231467399304D+00  1.7926571742490D-02
71  7.0000000000000D-01  1.3059769364431D+00  5.5941268660685D-02
72  7.1000000000000D-01  1.2872258153822D+00  9.5685462973494D-02
73  7.2000000000000D-01  1.2672329117849D+00  1.3640585101327D-01
74  7.3000000000000D-01  1.2463442314118D+00  1.7733748754886D-01
75  7.4000000000000D-01  1.2249061928128D+00  2.1771728551326D-01
76  7.5000000000000D-01  1.2032595307470D+00  2.5679758832893D-01
77  7.6000000000000D-01  1.1817332632183D+00  2.9385958707862D-01
78  7.7000000000000D-01  1.1606388241342D+00  3.2822635545342D-01
79  7.8000000000000D-01  1.1402644616669D+00  3.5927527983467D-01
80  7.9000000000000D-01  1.1208699988009D+00  3.8644966999386D-01
81  8.0000000000000D-01  1.1026820473392D+00  4.0926934762263D-01
82  8.1000000000000D-01  1.0858897598901D+00  4.2734002506115D-01
83  8.2000000000000D-01  1.0706411961592D+00  4.4036130495733D-01
84  8.3000000000000D-01  1.0570403703607D+00  4.4813315288025D-01
85  8.4000000000000D-01  1.0451450358776D+00  4.5056071880615D-01
86  8.5000000000000D-01  1.0349652516097D+00  4.4765740951847D-01
87  8.6000000000000D-01  1.0264627619384D+00  4.3954614190882D-01
88  8.7000000000000D-01  1.0195512091015D+00  4.2645873648770D-01
89  8.8000000000000D-01  1.0140971832217D+00  4.0873344064753D-01
90  8.9000000000000D-01  1.0099221014866D+00  3.8681060187858D-01
91  9.0000000000000D-01  1.0068048942577D+00  3.6122654172696D-01
92  9.1000000000000D-01  1.0044854624132D+00  3.3260571130528D-01
93  9.2000000000000D-01  1.0026688572274D+00  3.0165123812870D-01
94  9.3000000000000D-01  1.0010301217670D+00  2.6913400147532D-01
95  9.4000000000000D-01  9.9921972135624D-01  2.3588039890484D-01
96  9.5000000000000D-01  9.9686948030664D-01  2.0275898958555D-01
97  9.6000000000000D-01  9.9359893301039D-01  1.7066622028761D-01
98  9.7000000000000D-01  9.8902198981148D-01  1.4051145694951D-01
99  9.8000000000000D-01  9.8275381190383D-01  1.1320155836894D-01
100  9.9000000000000D-01  9.7441778510423D-01  8.9625238283803D-02
101  1.0000000000000D+00  9.6365247946183D-01  7.0637468428101D-02
102  1.0100000000000D+00  9.5011848083095D-01  5.7044176894738D-02
103  1.0200000000000D+00  9.3350498136697D-01  4.9587494158216D-02
104  1.0300000000000D+00  9.1353601858242D-01  4.8931793017652D-02
105  1.0400000000000D+00  8.8997625721950D-01  5.5650758293526D-02
106  1.0500000000000D+00  8.6263621432311D-01  7.0215708327023D-02
107  1.0600000000000D+00  8.3137683557844D-01  9.2985373082266D-02
108  1.0700000000000D+00  7.9611334087783D-01  1.2419731145171D-01
109  1.0800000000000D+00  7.5681826740045D-01  1.6396112724509D-01
110  1.0900000000000D+00  7.1352365112629D-01  2.1225361504772D-01
111  1.1000000000000D+00  6.6632230010734D-01  2.6891593938332D-01
112  1.1100000000000D+00  6.1536812680490D-01  3.3365291933223D-01
113  1.1200000000000D+00  5.6087552221926D-01  4.0603445628835D-01
114  1.1300000000000D+00  5.0311776874495D-01  4.8549911078808D-01
115  1.1400000000000D+00  4.4242450453637D-01  5.7135979892975D-01
116  1.1500000000000D+00  3.7917826508496D-01  6.6281155005157D-01
117  1.1600000000000D+00  3.1381014600501D-01  7.5894122648632D-01
118  1.1700000000000D+00  2.4679464304017D-01  8.5873907940065D-01
119  1.1800000000000D+00  1.7864373860236D-01  9.6111198505119D-01
120  1.1900000000000D+00  1.0990031675690D-01  1.0648981776793D+00
121  1.2000000000000D+00  4.1131001477286D-02  1.1688832664928D+00
122  1.2100000000000D+00 -2.7081478324675D-02  1.2718173048539D+00
123  1.2200000000000D+00 -9.4146287282321D-02  1.3724326659643D+00
124  1.2300000000000D+00 -1.5947272438843D-01  1.4694624538259D+00
125  1.2400000000000D+00 -2.2247858398254D-01  1.5616591761460D+00
126  1.2500000000000D+00 -2.8259851111257D-01  1.6478133977710D+00
127  1.2600000000000D+00 -3.3929222222235D-01  1.7267720860876D+00
128  1.2700000000000D+00 -3.9205246637961D-01  1.7974563694475D+00
129  1.2800000000000D+00 -4.4041260302832D-01  1.8588784314280D+00
130  1.2900000000000D+00 -4.8395367532042D-01  1.9101572707141D+00
131  1.3000000000000D+00 -5.2231087165218D-01  1.9505330868126D+00
132  1.3100000000000D+00 -5.5517926790421D-01  1.9793800515328D+00
133  1.3200000000000D+00 -5.8231875555248D-01  1.9962172545986D+00
134  1.3300000000000D+00 -6.0355808296944D-01  2.0007176613332D+00
135  1.3400000000000D+00 -6.1879792852915D-01  1.9927149008844D+00
136  1.3500000000000D+00 -6.2801295727616D-01  1.9722077776721D+00
137  1.3600000000000D+00 -6.3125283000404D-01  1.9393624369242D+00
138  1.3700000000000D+00 -6.2864211846192D-01  1.8945120813668D+00
139  1.3800000000000D+00 -6.2037914377492D-01  1.8381542778574D+00
140  1.3900000000000D+00 -6.0673373342249D-01  1.7709458441064D+00
141  1.4000000000000D+00 -5.8804391640726D-01  1.6936953599780D+00
142  1.4100000000000D+00 -5.6471162086273D-01  1.6073534475640D+00
143  1.4200000000000D+00 -5.3719739807182D-01  1.5130008742181D+00
144  1.4300000000000D+00 -5.0601427333169D-01  1.4118347036308D+00
145  1.4400000000000D+00 -4.7172079389560D-01  1.3051526524947D+00
146  1.4500000000000D+00 -4.3491336799358D-01  1.1943358634704D+00
147  1.4600000000000D+00 -3.9621802200335D-01  1.0808303789678D+00
148  1.4700000000000D+00 -3.5628166642982D-01  9.6612751899164D-01
149  1.4800000000000D+00 -3.1576302316279D-01  8.5174350426329D-01
150  1.4900000000000D+00 -2.7532332444493D-01  7.3919857199162D-01
151  1.5000000000000D+00 -2.3561693288655D-01  6.2999591851198D-01
152  1.5100000000000D+00 -1.9728200703768D-01  5.2560074748055D-01
153  1.5200000000000D+00 -1.6093136503935D-01  4.2741976500945D-01
154  1.5300000000000D+00 -1.2714365507539D-01  3.3678136496006D-01
155  1.5400000000000D+00 -9.6454998860906D-02  2.5491687646949D-01
156  1.5500000000000D+00 -6.9361056062121D-02  1.8296901908078D-01
157  1.5600000000000D+00 -4.6277330341588D-02  1.2189020007964D-01
158  1.5700000000000D+00 -2.7467788562841D-02  7.2257648089152D-02
159  1.5800000000000D+00 -1.3416435145564D-02  3.5251196979446D-02
160  1.5900000000000D+00 -4.6630669350303D-03  1.2222229388706D-02
161  1.6000000000000D+00 -5.7408763363981D-04  1.4737344006463D-03
162  1.6100000000000D+00  4.4952375091352D-04 -1.2023801884706D-03
163  1.6200000000000D+00  1.1409888482220D-04 -3.0293827515081D-04
164  1.6300000000000D+00 -1.4021671642256D-04  3.7179027982458D-04
165  1.6400000000000D+00 -3.4268383205927D-05  9.0768094773592D-05
166  1.6500000000000D+00  2.5187338145328D-05 -6.7005293564795D-05
167  1.6600000000000D+00  5.4620805579834D-06 -1.4520890494990D-05
168  1.6700000000000D+00  6.5194085048049D-08 -7.9149031639371D-08
169  1.6800000000000D+00  1.3294341524632D-08 -1.6140026463784D-08
170  1.6900000000000D+00  0.0000000000000D+00  0.0000000000000D+00
171  1.7000000000000D+00  0.0000000000000D+00  0.0000000000000D+00
172  1.7100000000000D+00  0.0000000000000D+00  0.0000000000000D+00
173  1.7200000000000D+00  0.0000000000000D+00  0.0000000000000D+00
174  1.7300000000000D+00  0.0000000000000D+00  0.0000000000000D+00
175  1.7400000000000D+00  0.0000000000000D+00  0.0000000000000D+00
176  1.7500000000000D+00  0.0000000000000D+00  0.0000000000000D+00
177  1.7600000000000D+00  0.0000000000000D+00  0.0000000000000D+00
178  1.7700000000000D+00  0.0000000000000D+00  0.0000000000000D+00
179  1.7800000000000D+00  0.0000000000000D+00  0.0000000000000D+00
180  1.7900000000000D+00  0.0000000000000D+00  0.0000000000000D+00
181  1.8000000000000D+00  0.0000000000000D+00  0.0000000000000D+00
182  1.8100000000000D+00  0.0000000000000D+00  0.0000000000000D+00
183  1.8200000000000D+00  0.0000000000000D+00  0.0000000000000D+00
184  1.8300000000000D+00  0.0000000000000D+00  0.0000000000000D+00
185  1.8400000000000D+00  0.0000000000000D+00  0.0000000000000D+00
186  1.8500000000000D+00  0.0000000000000D+00  0.0000000000000D+00
187  1.8600000000000D+00  0.0000000000000D+00  0.0000000000000D+00
188  1.8700000000000D+00  0.0000000000000D+00  0.0000000000000D+00
189  1.8800000000000D+00  0.0000000000000D+00  0.0000000000000D+00
190  1.8900000000000D+00  0.0000000000000D+00  0.0000000000000D+00
191  1.9000000000000D+00  0.0000000000000D+00  0.0000000000000D+00
192  1.9100000000000D+00  0.0000000000000D+00  0.0000000000000D+00
193  1.9200000000000D+00  0.0000000000000D+00  0.0000000000000D+00
194  1.9300000000000D+00  0.0000000000000D+00  0.0000000000000D+00
195  1.9400000000000D+00  0.0000000000000D+00  0.0000000000000D+00
196  1.9500000000000D+00  0.0000000000000D+00  0.0000000000000D+00
197  1.9600000000000D+00  0.0000000000000D+00  0.0000000000000D+00
198  1.9700000000000D+00  0.0000000000000D+00  0.0000000000000D+00
199  1.9800000000000D+00  0.0000000000000D+00  0.0000000000000D+00
200  1.9900000000000D+00  0.0000000000000D+00  0.0000000000000D+00
201  2.0000000000000D+00  0.0000000000000D+00  0.0000000000000D+00
202  2.0100000000000D+00  0.0000000000000D+00  0.0000000000000D+00
203  2.0200000000000D+00  0.0000000000000D+00  0.0000000000000D+00
204  2.0300000000000D+00  0.0000000000000D+00  0.0000000000000D+00
205  2.0400000000000D+00  0.0000000000000D+00  0.0000000000000D+00
206  2.0500000000000D+00  0.0000000000000D+00  0.0000000000000D+00
207  2.0600000000000D+00  0.0000000000000D+00  0.0000000000000D+00
208  2.0700000000000D+00  0.0000000000000D+00  0.0000000000000D+00
209  2.0800000000000D+00  0.0000000000000D+00  0.0000000000000D+00
210  2.0900000000000D+00  0.0000000000000D+00  0.0000000000000D+00
211  2.1000000000000D+00  0.0000000000000D+00  0.0000000000000D+00
212  2.1100000000000D+00  0.0000000000000D+00  0.0000000000000D+00
213  2.1200000000000D+00  0.0000000000000D+00  0.0000000000000D+00
214  2.1300000000000D+00  0.0000000000000D+00  0.0000000000000D+00
215  2.1400000000000D+00  0.0000000000000D+00  0.0000000000000D+00
216  2.1500000000000D+00  0.0000000000000D+00  0.0000000000000D+00
217  2.1600000000000D+00  0.0000000000000D+00  0.0000000000000D+00
218  2.1700000000000D+00  0.0000000000000D+00  0.0000000000000D+00
219  2.1800000000000D+00  0.0000000000000D+00  0.0000000000000D+00
220  2.1900000000000D+00  0.0000000000000D+00  0.0000000000000D+00
221  2.2000000000000D+00  0.0000000000000D+00  0.0000000000000D+00
222  2.2100000000000D+00  0.0000000000000D+00  0.0000000000000D+00
223  2.2200000000000D+00  0.0000000000000D+00  0.0000000000000D+00
224  2.2300000000000D+00  0.0000000000000D+00  0.0000000000000D+00
225  2.2400000000000D+00  0.0000000000000D+00  0.0000000000000D+00
226  2.2500000000000D+00  0.0000000000000D+00  0.0000000000000D+00
227  2.2600000000000D+00  0.0000000000000D+00  0.0000000000000D+00
228  2.2700000000000D+00  0.0000000000000D+00  0.0000000000000D+00
229  2.2800000000000D+00  0.0000000000000D+00  0.0000000000000D+00
230  2.2900000000000D+00  0.0000000000000D+00  0.0000000000000D+00
231  2.3000000000000D+00  0.0000000000000D+00  0.0000000000000D+00
232  2.3100000000000D+00  0.0000000000000D+00  0.0000000000000D+00
233  2.3200000000000D+00  0.0000000000000D+00  0.0000000000000D+00
234  2.3300000000000D+00  0.0000000000000D+00  0.0000000000000D+00
235  2.3400000000000D+00  0.0000000000000D+00  0.0000000000000D+00
236  2.3500000000000D+00  0.0000000000000D+00  0.0000000000000D+00
237  2.3600000000000D+00  0.0000000000000D+00  0.0000000000000D+00
238  2.3700000000000D+00  0.0000000000000D+00  0.0000000000000D+00
239  2.3800000000000D+00  0.0000000000000D+00  0.0000000000000D+00
240  2.3900000000000D+00  0.0000000000000D+00  0.0000000000000D+00
241  2.4000000000000D+00  0.0000000000000D+00  0.0000000000000D+00
242  2.4100000000000D+00  0.0000000000000D+00  0.0000000000000D+00
243  2.4200000000000D+00  0.0000000000000D+00  0.0000000000000D+00
244  2.4300000000000D+00  0.0000000000000D+00  0.0000000000000D+00
245  2.4400000000000D+00  0.0000000000000D+00  0.0000000000000D+00
246  2.4500000000000D+00  0.0000000000000D+00  0.0000000000000D+00
247  2.4600000000000D+00  0.0000000000000D+00  0.0000000000000D+00
248  2.4700000000000D+00  0.0000000000000D+00  0.0000000000000D+00
249  2.4800000000000D+00  0.0000000000000D+00  0.0000000000000D+00
250  2.4900000000000D+00  0.0000000000000D+00  0.0000000000000D+00
251  2.5000000000000D+00  0.0000000000000D+00  0.0000000000000D+00
252  2.5100000000000D+00  0.0000000000000D+00  0.0000000000000D+00
253  2.5200000000000D+00  0.0000000000000D+00  0.0000000000000D+00
254  2.5300000000000D+00  0.0000000000000D+00  0.0000000000000D+00
255  2.5400000000000D+00  0.0000000000000D+00  0.0000000000000D+00
256  2.5500000000000D+00  0.0000000000000D+00  0.0000000000000D+00
257  2.5600000000000D+00  0.0000000000000D+00  0.0000000000000D+00
258  2.5700000000000D+00  0.0000000000000D+00  0.0000000000000D+00
259  2.5800000000000D+00  0.0000000000000D+00  0.0000000000000D+00
260  2.5900000000000D+00  0.0000000000000D+00  0.0000000000000D+00
261  2.6000000000000D+00  0.0000000000000D+00  0.0000000000000D+00
262  2.6100000000000D+00  0.0000000000000D+00  0.0000000000000D+00
263  2.6200000000000D+00  0.0000000000000D+00  0.0000000000000D+00
264  2.6300000000000D+00  0.0000000000000D+00  0.0000000000000D+00
265  2.6400000000000D+00  0.0000000000000D+00  0.0000000000000D+00
266  2.6500000000000D+00  0.0000000000000D+00  0.0000000000000D+00
267  2.6600000000000D+00  0.0000000000000D+00  0.0000000000000D+00
268  2.6700000000000D+00  0.0000000000000D+00  0.0000000000000D+00
269  2.6800000000000D+00  0.0000000000000D+00  0.0000000000000D+00
270  2.6900000000000D+00  0.0000000000000D+00  0.0000000000000D+00
271  2.7000000000000D+00  0.0000000000000D+00  0.0000000000000D+00
272  2.7100000000000D+00  0.0000000000000D+00  0.0000000000000D+00
273  2.7200000000000D+00  0.0000000000000D+00  0.0000000000000D+00
274  2.7300000000000D+00  0.0000000000000D+00  0.0000000000000D+00
275  2.7400000000000D+00  0.0000000000000D+00  0.0000000000000D+00
276  2.7500000000000D+00  0.0000000000000D+00  0.0000000000000D+00
277  2.7600000000000D+00  0.0000000000000D+00  0.0000000000000D+00
278  2.7700000000000D+00  0.0000000000000D+00  0.0000000000000D+00
279  2.7800000000000D+00  0.0000000000000D+00  0.0000000000000D+00
280  2.7900000000000D+00  0.0000000000000D+00  0.0000000000000D+00
281  2.8000000000000D+00  0.0000000000000D+00  0.0000000000000D+00
282  2.8100000000000D+00  0.0000000000000D+00  0.0000000000000D+00
283  2.8200000000000D+00  0.0000000000000D+00  0.0000000000000D+00
284  2.8300000000000D+00  0.0000000000000D+00  0.0000000000000D+00
285  2.8400000000000D+00  0.0000000000000D+00  0.0000000000000D+00
286  2.8500000000000D+00  0.0000000000000D+00  0.0000000000000D+00
287  2.8600000000000D+00  0.0000000000000D+00  0.0000000000000D+00
288  2.8700000000000D+00  0.0000000000000D+00  0.0000000000000D+00
289  2.8800000000000D+00  0.0000000000000D+00  0.0000000000000D+00
290  2.8900000000000D+00  0.0000000000000D+00  0.0000000000000D+00
291  2.9000000000000D+00  0.0000000000000D+00  0.0000000000000D+00
292  2.9100000000000D+00  0.0000000000000D+00  0.0000000000000D+00
293  2.9200000000000D+00  0.0000000000000D+00  0.0000000000000D+00
294  2.9300000000000D+00  0.0000000000000D+00  0.0000000000000D+00
295  2.9400000000000D+00  0.0000000000000D+00  0.0000000000000D+00
296  2.9500000000000D+00  0.0000000000000D+00  0.0000000000000D+00
297  2.9600000000000D+00  0.0000000000000D+00  0.0000000000000D+00
298  2.9700000000000D+00  0.0000000000000D+00  0.0000000000000D+00
299  2.9800000000000D+00  0.0000000000000D+00  0.0000000000000D+00
300  2.9900000000000D+00  0.0000000000000D+00  0.0000000000000D+00
301  3.0000000000000D+00  0.0000000000000D+00  0.0000000000000D+00
302  3.0100000000000D+00  0.0000000000000D+00  0.0000000000000D+00
303  3.0200000000000D+00  0.0000000000000D+00  0.0000000000000D+00
304  3.0300000000000D+00  0.0000000000000D+00  0.0000000000000D+00
305  3.0400000000000D+00  0.0000000000000D+00  0.0000000000000D+00
306  3.0500000000000D+00  0.0000000000000D+00  0.0000000000000D+00
307  3.0600000000000D+00  0.0000000000000D+00  0.0000000000000D+00
308  3.0700000000000D+00  0.0000000000000D+00  0.0000000000000D+00
309  3.0800000000000D+00  0.0000000000000D+00  0.0000000000000D+00
310  3.0900000000000D+00  0.0000000000000D+00  0.0000000000000D+00
311  3.1000000000000D+00  0.0000000000000D+00  0.0000000000000D+00
312  3.1100000000000D+00  0.0000000000000D+00  0.0000000000000D+00
313  3.1200000000000D+00  0.0000000000000D+00  0.0000000000000D+00
314  3.1300000000000D+00  0.0000000000000D+00  0.0000000000000D+00
315  3.1400000000000D+00  0.0000000000000D+00  0.0000000000000D+00
316  3.1500000000000D+00  0.0000000000000D+00  0.0000000000000D+00
317  3.1600000000000D+00  0.0000000000000D+00  0.0000000000000D+00
318  3.1700000000000D+00  0.0000000000000D+00  0.0000000000000D+00
319  3.1800000000000D+00  0.0000000000000D+00  0.0000000000000D+00
320  3.1900000000000D+00  0.0000000000000D+00  0.0000000000000D+00
321  3.2000000000000D+00  0.0000000000000D+00  0.0000000000000D+00
322  3.2100000000000D+00  0.0000000000000D+00  0.0000000000000D+00
323  3.2200000000000D+00  0.0000000000000D+00  0.0000000000000D+00
324  3.2300000000000D+00  0.0000000000000D+00  0.0000000000000D+00
325  3.2400000000000D+00  0.0000000000000D+00  0.0000000000000D+00
326  3.2500000000000D+00  0.0000000000000D+00  0.0000000000000D+00
327  3.2600000000000D+00  0.0000000000000D+00  0.0000000000000D+00
328  3.2700000000000D+00  0.0000000000000D+00  0.0000000000000D+00
329  3.2800000000000D+00  0.0000000000000D+00  0.0000000000000D+00
330  3.2900000000000D+00  0.0000000000000D+00  0.0000000000000D+00
331  3.3000000000000D+00  0.0000000000000D+00  0.0000000000000D+00
332  3.3100000000000D+00  0.0000000000000D+00  0.0000000000000D+00
333  3.3200000000000D+00  0.0000000000000D+00  0.0000000000000D+00
334  3.3300000000000D+00  0.0000000000000D+00  0.0000000000000D+00
335  3.3400000000000D+00  0.0000000000000D+00  0.0000000000000D+00
336  3.3500000000000D+00  0.0000000000000D+00  0.0000000000000D+00
337  3.3600000000000D+00  0.0000000000000D+00  0.0000000000000D+00
338  3.3700000000000D+00  0.0000000000000D+00  0.0000000000000D+00
339  3.3800000000000D+00  0.0000000000000D+00  0.0000000000000D+00
340  3.3900000000000D+00  0.0000000000000D+00  0.0000000000000D+00
341  3.4000000000000D+00  0.0000000000000D+00  0.0000000000000D+00
342  3.4100000000000D+00  0.0000000000000D+00  0.0000000000000D+00
343  3.4200000000000D+00  0.0000000000000D+00  0.0000000000000D+00
344  3.4300000000000D+00  0.0000000000000D+00  0.0000000000000D+00
345  3.4400000000000D+00  0.0000000000000D+00  0.0000000000000D+00
346  3.4500000000000D+00  0.0000000000000D+00  0.0000000000000D+00
347  3.4600000000000D+00  0.0000000000000D+00  0.0000000000000D+00
348  3.4700000000000D+00  0.0000000000000D+00  0.0000000000000D+00
349  3.4800000000000D+00  0.0000000000000D+00  0.0000000000000D+00
350  3.4900000000000D+00  0.0000000000000D+00  0.0000000000000D+00
351  3.5000000000000D+00  0.0000000000000D+00  0.0000000000000D+00
352  3.5100000000000D+00  0.0000000000000D+00  0.0000000000000D+00
353  3.5200000000000D+00  0.0000000000000D+00  0.0000000000000D+00
354  3.5300000000000D+00  0.0000000000000D+00  0.0000000000000D+00
355  3.5400000000000D+00  0.0000000000000D+00  0.0000000000000D+00
356  3.5500000000000D+00  0.0000000000000D+00  0.0000000000000D+00
357  3.5600000000000D+00  0.0000000000000D+00  0.0000000000000D+00
358  3.5700000000000D+00  0.0000000000000D+00  0.0000000000000D+00
359  3.5800000000000D+00  0.0000000000000D+00  0.0000000000000D+00
360  3.5900000000000D+00  0.0000000000000D+00  0.0000000000000D+00
361  3.6000000000000D+00  0.0000000000000D+00  0.0000000000000D+00
362  3.6100000000000D+00  0.0000000000000D+00  0.0000000000000D+00
363  3.6200000000000D+00  0.0000000000000D+00  0.0000000000000D+00
364  3.6300000000000D+00  0.0000000000000D+00  0.0000000000000D+00
365  3.6400000000000D+00  0.0000000000000D+00  0.0000000000000D+00
366  3.6500000000000D+00  0.0000000000000D+00  0.0000000000000D+00
367  3.6600000000000D+00  0.0000000000000D+00  0.0000000000000D+00
368  3.6700000000000D+00  0.0000000000000D+00  0.0000000000000D+00
369  3.6800000000000D+00  0.0000000000000D+00  0.0000000000000D+00
370  3.6900000000000D+00  0.0000000000000D+00  0.0000000000000D+00
371  3.7000000000000D+00  0.0000000000000D+00  0.0000000000000D+00
372  3.7100000000000D+00  0.0000000000000D+00  0.0000000000000D+00
373  3.7200000000000D+00  0.0000000000000D+00  0.0000000000000D+00
374  3.7300000000000D+00  0.0000000000000D+00  0.0000000000000D+00
375  3.7400000000000D+00  0.0000000000000D+00  0.0000000000000D+00
376  3.7500000000000D+00  0.0000000000000D+00  0.0000000000000D+00
377  3.7600000000000D+00  0.0000000000000D+00  0.0000000000000D+00
378  3.7700000000000D+00  0.0000000000000D+00  0.0000000000000D+00
379  3.7800000000000D+00  0.0000000000000D+00  0.0000000000000D+00
380  3.7900000000000D+00  0.0000000000000D+00  0.0000000000000D+00
381  3.8000000000000D+00  0.0000000000000D+00  0.0000000000000D+00
382  3.8100000000000D+00  0.0000000000000D+00  0.0000000000000D+00
383  3.8200000000000D+00  0.0000000000000D+00  0.0000000000000D+00
384  3.8300000000000D+00  0.0000000000000D+00  0.0000000000000D+00
385  3.8400000000000D+00  0.0000000000000D+00  0.0000000000000D+00
386  3.8500000000000D+00  0.0000000000000D+00  0.0000000000000D+00
387  3.8600000000000D+00  0.0000000000000D+00  0.0000000000000D+00
388  3.8700000000000D+00  0.0000000000000D+00  0.0000000000000D+00
389  3.8800000000000D+00  0.0000000000000D+00  0.0000000000000D+00
390  3.8900000000000D+00  0.0000000000000D+00  0.0000000000000D+00
391  3.9000000000000D+00  0.0000000000000D+00  0.0000000000000D+00
392  3.9100000000000D+00  0.0000000000000D+00  0.0000000000000D+00
393  3.9200000000000D+00  0.0000000000000D+00  0.0000000000000D+00
394  3.9300000000000D+00  0.0000000000000D+00  0.0000000000000D+00
395  3.9400000000000D+00  0.0000000000000D+00  0.0000000000000D+00
396  3.9500000000000D+00  0.0000000000000D+00  0.0000000000000D+00
397  3.9600000000000D+00  0.0000000000000D+00  0.0000000000000D+00
398  3.9700000000000D+00  0.0000000000000D+00  0.0000000000000D+00
399  3.9800000000000D+00  0.0000000000000D+00  0.0000000000000D+00
400  3.9900000000000D+00  0.0000000000000D+00  0.0000000000000D+00
401  4.0000000000000D+00  0.0000000000000D+00  0.0000000000000D+00
402  4.0100000000000D+00  0.0000000000000D+00  0.0000000000000D+00
403  4.0200000000000D+00  0.0000000000000D+00  0.0000000000000D+00
404  4.0300000000000D+00  0.0000000000000D+00  0.0000000000000D+00
405  4.0400000000000D+00  0.0000000000000D+00  0.0000000000000D+00
406  4.0500000000000D+00  0.0000000000000D+00  0.0000000000000D+00
407  4.0600000000000D+00  0.0000000000000D+00  0.0000000000000D+00
408  4.0700000000000D+00  0.0000000000000D+00  0.0000000000000D+00
409  4.0800000000000D+00  0.0000000000000D+00  0.0000000000000D+00
410  4.0900000000000D+00  0.0000000000000D+00  0.0000000000000D+00
411  4.1000000000000D+00  0.0000000000000D+00  0.0000000000000D+00
412  4.1100000000000D+00  0.0000000000000D+00  0.0000000000000D+00
413  4.1200000000000D+00  0.0000000000000D+00  0.0000000000000D+00
414  4.1300000000000D+00  0.0000000000000D+00  0.0000000000000D+00
415  4.1400000000000D+00  0.0000000000000D+00  0.0000000000000D+00
416  4.1500000000000D+00  0.0000000000000D+00  0.0000000000000D+00
417  4.1600000000000D+00  0.0000000000000D+00  0.0000000000000D+00
418  4.1700000000000D+00  0.0000000000000D+00  0.0000000000000D+00
419  4.1800000000000D+00  0.0000000000000D+00  0.0000000000000D+00
420  4.1900000000000D+00  0.0000000000000D+00  0.0000000000000D+00
421  4.2000000000000D+00  0.0000000000000D+00  0.0000000000000D+00
422  4.2100000000000D+00  0.0000000000000D+00  0.0000000000000D+00
423  4.2200000000000D+00  0.0000000000000D+00  0.0000000000000D+00
424  4.2300000000000D+00  0.0000000000000D+00  0.0000000000000D+00
425  4.2400000000000D+00  0.0000000000000D+00  0.0000000000000D+00
426  4.2500000000000D+00  0.0000000000000D+00  0.0000000000000D+00
427  4.2600000000000D+00  0.0000000000000D+00  0.0000000000000D+00
428  4.2700000000000D+00  0.0000000000000D+00  0.0000000000000D+00
429  4.2800000000000D+00  0.0000000000000D+00  0.0000000000000D+00
430  4.2900000000000D+00  0.0000000000000D+00  0.0000000000000D+00
431  4.3000000000000D+00  0.0000000000000D+00  0.0000000000000D+00
432  4.3100000000000D+00  0.0000000000000D+00  0.0000000000000D+00
433  4.3200000000000D+00  0.0000000000000D+00  0.0000000000000D+00
434  4.3300000000000D+00  0.0000000000000D+00  0.0000000000000D+00
435  4.3400000000000D+00  0.0000000000000D+00  0.0000000000000D+00
436  4.3500000000000D+00  0.0000000000000D+00  0.0000000000000D+00
437  4.3600000000000D+00  0.0000000000000D+00  0.0000000000000D+00
438  4.3700000000000D+00  0.0000000000000D+00  0.0000000000000D+00
439  4.3800000000000D+00  0.0000000000000D+00  0.0000000000000D+00
440  4.3900000000000D+00  0.0000000000000D+00  0.0000000000000D+00
441  4.4000000000000D+00  0.0000000000000D+00  0.0000000000000D+00
442  4.4100000000000D+00  0.0000000000000D+00  0.0000000000000D+00
443  4.4200000000000D+00  0.0000000000000D+00  0.0000000000000D+00